# vtk DataFile Version 2.0
Square plate test
ASCII
DATASET UNSTRUCTURED_GRID
POINTS 14565 float
3.44422 -2.88247 -0.960083
3.78676 -2.5034 -0.898221
3.27915 -2.65123 -1.59051
3.09369 -3.26991 -1.02345
3.49422 -2.82721 -0.951046
3.54421 -2.77196 -0.942008
3.5942 -2.7167 -0.932971
3.6442 -2.66145 -0.923933
3.69419 -2.60619 -0.914896
3.74418 -2.55094 -0.905858
3.42418 -2.85396 -1.04245
3.40413 -2.82546 -1.12482
3.38409 -2.79695 -1.20719
3.36404 -2.76845 -1.28956
3.34399 -2.73994 -1.37193
3.32395 -2.71144 -1.4543
3.33605 -2.5927 -1.57371
3.39499 -2.54052 -1.54367
3.45452 -2.49598 -1.50113
3.51317 -2.46017 -1.44714
3.5695 -2.43398 -1.38302
3.62213 -2.41804 -1.31036
3.66975 -2.41276 -1.23095
3.71119 -2.41825 -1.14674
3.74544 -2.4344 -1.0598
3.14426 -3.214 -1.01431
3.19426 -3.15874 -1.00527
3.24425 -3.10349 -0.996233
3.29424 -3.04823 -0.987196
3.34424 -2.99298 -0.978158
3.39423 -2.93772 -0.969121
3.04868 -3.20448 -1.18576
3.04027 -3.15978 -1.26802
3.04119 -3.10746 -1.34458
3.05141 -3.04882 -1.41353
3.07068 -2.9853 -1.4732
3.09852 -2.91846 -1.52209
3.13426 -2.84995 -1.55902
3.177 -2.78146 -1.58308
3.2257 -2.71467 -1.59366
3.56915 -2.53495 -1.26305
3.39297 -2.68918 -1.35784
3.44294 -2.6407 -1.33832
3.49233 -2.59679 -1.3128
3.53697 -2.56023 -1.28486
3.59043 -2.53933 -1.21584
3.61782 -2.54836 -1.14981
3.64522 -2.56308 -1.0749
3.67049 -2.58308 -0.995831
3.57844 -2.50843 -1.28663
3.62269 -2.63623 -1.00397
3.57344 -2.68988 -1.01409
3.52366 -2.7442 -1.02416
3.47384 -2.79905 -1.03351
3.59929 -2.61391 -1.08309
3.5512 -2.66536 -1.09443
3.50221 -2.71802 -1.10561
3.45311 -2.77164 -1.11548
3.57481 -2.59518 -1.15868
3.52859 -2.64313 -1.17193
3.48074 -2.69314 -1.18504
3.43246 -2.74475 -1.19649
3.55248 -2.57875 -1.22663
3.50833 -2.62151 -1.244
3.46098 -2.66815 -1.2614
3.41261 -2.71763 -1.27632
3.37649 -2.65884 -1.4363
3.43016 -2.60987 -1.41052
3.4835 -2.56691 -1.376
3.53383 -2.53232 -1.33422
3.61745 -2.50006 -1.2256
3.65425 -2.50149 -1.15347
3.68789 -2.51141 -1.0742
3.71762 -2.52866 -0.990922
3.15422 -2.99242 -1.33983
3.17848 -3.1279 -1.08317
3.16617 -3.09358 -1.15989
3.15859 -3.05618 -1.2324
3.15534 -3.01966 -1.29535
3.17764 -2.95615 -1.35172
3.21168 -2.90654 -1.36421
3.25224 -2.85199 -1.37198
3.29701 -2.79611 -1.37383
3.13187 -3.00118 -1.36862
3.31655 -2.82309 -1.2948
3.3354 -2.85185 -1.21431
3.35456 -2.88083 -1.13287
3.37429 -2.90942 -1.05097
3.27074 -2.87811 -1.29625
3.28807 -2.90701 -1.21844
3.306 -2.93623 -1.13895
3.32496 -2.96478 -1.05859
3.22811 -2.93167 -1.29394
3.24304 -2.96075 -1.22039
3.25894 -2.99052 -1.14394
3.27629 -3.01956 -1.06585
3.18997 -2.97998 -1.29128
3.20075 -3.01038 -1.22356
3.21322 -3.0423 -1.15027
3.22806 -3.07331 -1.07388
3.12946 -3.17931 -1.09633
3.11979 -3.13976 -1.17617
3.11673 -3.0955 -1.25077
3.12064 -3.04861 -1.31623
3.15602 -2.9489 -1.40405
3.18951 -2.89147 -1.42972
3.22996 -2.83156 -1.44603
3.27545 -2.77125 -1.45341
3.22772 -2.83326 -0.220195
3.41801 -2.87763 -0.866363
3.39179 -2.87279 -0.772642
3.36557 -2.86796 -0.678922
3.33935 -2.86312 -0.585201
3.31313 -2.85828 -0.491481
3.28691 -2.85345 -0.39776
3.28478 -2.77298 -0.217859
3.34468 -2.71503 -0.230769
3.40595 -2.66086 -0.258608
3.46707 -2.61179 -0.300691
3.52655 -2.56903 -0.355979
3.58292 -2.53364 -0.423114
3.6348 -2.50649 -0.500441
3.6809 -2.48823 -0.586055
3.72008 -2.47934 -0.677851
3.02642 -3.246 -0.803247
3.01296 -3.22647 -0.7068
3.00903 -3.1981 -0.613562
3.01474 -3.16162 -0.525826
3.02995 -3.11791 -0.445752
3.05427 -3.06804 -0.375315
3.0871 -3.01326 -0.316246
3.12765 -2.9549 -0.270001
3.17491 -2.8944 -0.237719
3.54364 -2.6328 -0.535059
3.36252 -2.80595 -0.489105
3.41331 -2.75432 -0.493031
3.464 -2.70542 -0.504611
3.5102 -2.66288 -0.521106
3.56831 -2.62415 -0.584817
3.60049 -2.61482 -0.655377
3.63337 -2.60851 -0.736901
3.66448 -2.60611 -0.824426
3.55094 -2.61387 -0.502149
3.61672 -2.65912 -0.833689
3.56738 -2.71313 -0.841092
3.51751 -2.76778 -0.848755
3.46767 -2.82273 -0.857344
3.58745 -2.65931 -0.745338
3.53915 -2.71155 -0.750758
3.48998 -2.76491 -0.756748
3.4408 -2.81883 -0.764394
3.5574 -2.66197 -0.661794
3.51079 -2.71138 -0.664103
3.46259 -2.76274 -0.66723
3.4141 -2.81516 -0.672598
3.53005 -2.66475 -0.586829
3.48516 -2.71033 -0.583194
3.43712 -2.75963 -0.580825
3.38827 -2.81096 -0.581932
3.34012 -2.7983 -0.398772
3.39505 -2.74449 -0.408947
3.45034 -2.69406 -0.430052
3.50323 -2.64964 -0.461364
3.59418 -2.58927 -0.561838
3.63612 -2.57103 -0.636116
3.67549 -2.55895 -0.720513
3.71133 -2.55279 -0.811443
3.12856 -3.0908 -0.607886
3.1726 -3.15045 -0.915354
3.15445 -3.13852 -0.825487
3.14129 -3.12251 -0.738912
3.13315 -3.10474 -0.662415
3.15072 -3.05938 -0.583713
3.18329 -3.01537 -0.554514
3.22268 -2.96536 -0.528506
3.26667 -2.91248 -0.50813
3.10428 -3.107 -0.581316
3.29212 -2.91676 -0.597925
3.31702 -2.92234 -0.689809
3.34229 -2.92789 -0.782731
3.36816 -2.93294 -0.876003
3.24685 -2.96973 -0.614645
3.27003 -2.97617 -0.703836
3.29394 -2.98248 -0.79484
3.31893 -2.98791 -0.886525
3.205 -3.02028 -0.634733
3.22549 -3.02806 -0.719619
3.24715 -3.03571 -0.8077
3.27038 -3.04223 -0.897219
3.16761 -3.06571 -0.653443
3.18355 -3.07634 -0.732806
3.20158 -3.08691 -0.818362
3.2222 -3.09577 -0.906792
3.12324 -3.20316 -0.9189
3.10745 -3.18708 -0.824114
3.09859 -3.16508 -0.733131
3.09731 -3.13808 -0.650628
3.12531 -3.06668 -0.527766
3.15631 -3.01879 -0.482497
3.19491 -2.96598 -0.445973
3.23917 -2.91036 -0.418469
3.99325 -3.4123 -0.932944
3.51019 -2.94642 -0.95643
3.57615 -3.01038 -0.952777
3.64211 -3.07434 -0.949124
3.70808 -3.13829 -0.945471
3.77404 -3.20225 -0.941817
3.84 -3.26621 -0.938164
4.04223 -3.34716 -0.923421
4.07935 -3.27335 -0.914719
4.10369 -3.19271 -0.907052
4.11467 -3.10721 -0.900609
4.112 -3.01896 -0.895549
4.09576 -2.93013 -0.891996
4.06634 -2.84292 -0.890037
4.02447 -2.75947 -0.889722
3.97118 -2.68182 -0.891057
3.28549 -3.43967 -1.01501
3.36421 -3.48921 -1.00908
3.44777 -3.52659 -1.00186
3.53411 -3.55089 -0.993527
3.6211 -3.56152 -0.98429
3.70661 -3.55822 -0.974376
3.78852 -3.54105 -0.964028
3.86482 -3.51046 -0.953501
3.93363 -3.46719 -0.943054
3.92473 -2.9172 -0.907415
3.81729 -3.14534 -0.933448
3.85581 -3.08455 -0.925384
3.88707 -3.02116 -0.917989
3.91002 -2.96126 -0.911754
3.89865 -2.87067 -0.907576
3.85932 -2.80797 -0.90827
3.81031 -2.74056 -0.909781
3.75421 -2.67308 -0.912097
3.96161 -2.92035 -0.903401
3.70586 -2.72564 -0.920785
3.65794 -2.78072 -0.929576
3.60934 -2.83631 -0.938474
3.55989 -2.89155 -0.947449
3.76426 -2.79126 -0.918094
3.71906 -2.84582 -0.926543
3.6726 -2.9012 -0.935185
3.62459 -2.95599 -0.943969
3.81751 -2.85609 -0.915942
3.77663 -2.90977 -0.923847
3.73366 -2.96503 -0.932084
3.68835 -3.01983 -0.94056
3.86498 -2.9147 -0.914074
3.83109 -2.96848 -0.921187
3.7934 -3.02551 -0.92893
3.75178 -3.08224 -0.937102
3.88325 -3.20363 -0.929453
3.91936 -3.13578 -0.921236
3.94554 -3.06361 -0.913892
3.96016 -2.99064 -0.907815
3.94165 -2.84858 -0.90134
3.90695 -2.77315 -0.900736
3.86064 -2.69712 -0.90142
3.80528 -2.6229 -0.903244
3.51172 -3.37675 -0.982261
3.26045 -3.21601 -1.00119
3.3295 -3.26916 -0.996529
3.39963 -3.3153 -0.991324
3.46448 -3.35201 -0.98615
3.55276 -3.35942 -0.976536
3.60716 -3.3317 -0.968661
3.66423 -3.29488 -0.959932
3.71985 -3.25068 -0.950921
3.51642 -3.41458 -0.984012
3.65693 -3.18901 -0.954365
3.59158 -3.12725 -0.958081
3.52558 -3.06468 -0.961822
3.45975 -3.00129 -0.965495
3.60366 -3.23601 -0.963277
3.53942 -3.17721 -0.967046
3.47408 -3.11692 -0.970849
3.409 -3.05513 -0.974532
3.55009 -3.27781 -0.971909
3.48764 -3.2237 -0.975757
3.42317 -3.16708 -0.979683
3.35866 -3.10811 -0.983472
3.50151 -3.31489 -0.979687
3.44045 -3.26806 -0.983817
3.37533 -3.21657 -0.988127
3.30967 -3.16104 -0.992255
3.21612 -3.27247 -1.00965
3.29175 -3.32461 -1.00418
3.36956 -3.3673 -0.997893
3.44575 -3.39811 -0.991072
3.58403 -3.40902 -0.97597
3.65217 -3.38884 -0.966985
3.71843 -3.35668 -0.957488
3.78095 -3.31468 -0.947824
2.51559 -2.08614 -0.741304
2.89957 -1.66175 -0.671891
2.48536 -1.96667 -1.30449
2.13162 -2.51053 -0.810717
2.57045 -2.02551 -0.731388
2.6253 -1.96488 -0.721472
2.68016 -1.90426 -0.711556
2.73501 -1.84363 -0.701639
2.78986 -1.783 -0.691723
2.84472 -1.72238 -0.681807
2.51127 -2.06907 -0.821759
2.50696 -2.052 -0.902213
2.50264 -2.03494 -0.982668
2.49832 -2.01787 -1.06312
2.494 -2.0008 -1.14358
2.48968 -1.98374 -1.22403
2.5458 -1.90175 -1.28669
2.60549 -1.84137 -1.25547
2.66298 -1.78702 -1.21159
2.71683 -1.74004 -1.15613
2.76573 -1.70157 -1.09045
2.80847 -1.67258 -1.01618
2.844 -1.65377 -0.935136
2.87144 -1.6456 -0.849322
2.89011 -1.64829 -0.760847
2.18647 -2.4499 -0.800801
2.24132 -2.38927 -0.790885
2.29618 -2.32864 -0.780968
2.35103 -2.26802 -0.771052
2.40589 -2.20739 -0.761136
2.46074 -2.14676 -0.75122
2.13161 -2.48661 -0.897963
2.14107 -2.45284 -0.981353
2.15974 -2.41003 -1.05883
2.18718 -2.35925 -1.12849
2.2227 -2.30175 -1.18862
2.26544 -2.23893 -1.23773
2.31433 -2.17236 -1.27462
2.36818 -2.10366 -1.29837
2.42566 -2.03453 -1.30841
2.72574 -1.76358 -1.0327
2.54656 -1.94416 -1.12877
2.59903 -1.88908 -1.10868
2.6495 -1.8379 -1.08277
2.69403 -1.7942 -1.05462
2.73936 -1.76056 -0.986367
2.75569 -1.75944 -0.921611
2.77006 -1.76297 -0.848235
2.78106 -1.77147 -0.770868
2.74161 -1.73904 -1.0554
2.7285 -1.8297 -0.779862
2.67474 -1.88879 -0.790808
2.62036 -1.94859 -0.80173
2.56578 -2.00882 -0.811939
2.71964 -1.81873 -0.85724
2.66747 -1.87565 -0.869349
2.61423 -1.93385 -0.881319
2.56058 -1.99287 -0.892024
2.70876 -1.81102 -0.931206
2.65913 -1.86451 -0.945126
2.60764 -1.92018 -0.958956
2.55527 -1.9773 -0.971171
2.69859 -1.80452 -0.997705
2.65226 -1.85313 -1.01559
2.60229 -1.9059 -1.03357
2.55061 -1.96131 -1.04916
2.54542 -1.92449 -1.20535
2.60069 -1.86785 -1.17909
2.65364 -1.81624 -1.14436
2.70153 -1.77238 -1.10262
2.77228 -1.72011 -0.995226
2.79797 -1.70987 -0.924342
2.81845 -1.70754 -0.846586
2.83359 -1.71242 -0.765027
2.27086 -2.26584 -1.11672
2.24086 -2.36897 -0.866897
2.24407 -2.34476 -0.941691
2.25173 -2.31656 -1.01229
2.26215 -2.28775 -1.0735
2.30018 -2.22896 -1.12774
2.34171 -2.17789 -1.13909
2.38961 -2.12076 -1.14572
[...]
POINT_DATA 14565
VECTORS VelocityField float
0.545337 -0.508034 0.0269553
0 0 0
0 0 0
0 0 0
0.531657 -0.498323 0.024814
0.492709 -0.467285 0.022129
0.436524 -0.415701 0.0164104
0.3591 -0.342571 0.0113932
0.256963 -0.246336 0.00613392
0.136953 -0.133227 0.00149047
0.529891 -0.482564 -0.0370641
0.508574 -0.451666 -0.0940445
0.470359 -0.409569 -0.134389
0.415038 -0.354047 -0.156316
0.331235 -0.279067 -0.147759
0.242011 -0.199568 -0.133069
0 0 0
0 0 0
0 0 0
0 0 0
0 0 0
0 0 0
0 0 0
0 0 0
0 0 0
0.168162 -0.147678 0.00663428
0.283032 -0.256073 0.0126862
0.386652 -0.349017 0.0187213
0.45842 -0.418112 0.0231426
0.510854 -0.4687 0.0264868
0.538394 -0.499711 0.0277271
0 0 0
0 0 0
0 0 0
0 0 0
0 0 0
0 0 0
0 0 0
0 0 0
0 0 0
0.215597 -0.178536 -0.0814548
0.328943 -0.274311 -0.143569
0.312314 -0.258478 -0.133879
0.284684 -0.23433 -0.116754
0.251463 -0.204572 -0.0996853
0.237439 -0.196937 -0.0835121
0.25098 -0.21556 -0.0719627
0.260813 -0.232004 -0.0530371
0.260241 -0.241076 -0.0222547
0.178775 -0.140631 -0.0775496
0.352519 -0.325466 -0.0306118
0.426636 -0.392286 -0.03253
0.482634 -0.441591 -0.0370597
0.514515 -0.470927 -0.035248
0.348509 -0.308549 -0.0704055
0.416058 -0.369752 -0.0811471
0.465939 -0.414339 -0.0885015
0.499057 -0.442778 -0.0953274
0.329392 -0.28181 -0.0940027
0.387599 -0.334558 -0.108732
0.433868 -0.374879 -0.122889
0.459998 -0.399054 -0.129714
0.300851 -0.250875 -0.107197
0.349495 -0.292358 -0.125974
0.388295 -0.326281 -0.141854
0.410321 -0.347964 -0.152962
0.245079 -0.198848 -0.131995
0.237434 -0.18951 -0.122861
0.220113 -0.174451 -0.109305
0.197501 -0.156969 -0.0916812
0.174131 -0.141255 -0.0689068
0.175287 -0.144418 -0.0597341
0.169196 -0.146 -0.0457375
0.149301 -0.135904 -0.0232653
0.210399 -0.18541 -0.0841397
0.277117 -0.246166 -0.0186758
0.26824 -0.23697 -0.051604
0.253404 -0.223444 -0.0729939
0.233513 -0.206824 -0.0850418
0.241713 -0.212875 -0.101176
0.276669 -0.241109 -0.11844
0.30615 -0.264355 -0.134353
0.326852 -0.278743 -0.144349
0.168085 -0.150372 -0.078915
0.406191 -0.350504 -0.153618
0.459635 -0.401271 -0.130238
0.500549 -0.444879 -0.094542
0.521125 -0.472035 -0.0337382
0.381855 -0.331835 -0.143051
0.432148 -0.379638 -0.122508
0.470776 -0.417811 -0.0864936
0.491785 -0.44432 -0.0332869
0.342234 -0.300148 -0.12655
0.386922 -0.340757 -0.108414
0.422193 -0.37428 -0.0780383
0.441525 -0.397492 -0.0284766
0.29437 -0.260189 -0.109352
0.328702 -0.290524 -0.0941239
0.35681 -0.316567 -0.0684241
0.370679 -0.332041 -0.0273532
0.162488 -0.143364 -0.0234147
0.172201 -0.152058 -0.0450425
0.171533 -0.153205 -0.0614505
0.168703 -0.150347 -0.0714889
0.186263 -0.16459 -0.0933478
0.208888 -0.182202 -0.110132
0.229692 -0.196891 -0.124491
0.24229 -0.203786 -0.133081
0 0 0
0.570791 -0.542239 0.0853956
0.588465 -0.568198 0.143446
0.581619 -0.568545 0.183536
0.557888 -0.551442 0.212363
0.476025 -0.475026 0.200035
0.405703 -0.408012 0.194241
0 0 0
0 0 0
0 0 0
0 0 0
0 0 0
0 0 0
0 0 0
0 0 0
0 0 0
0 0 0
0 0 0
0 0 0
0 0 0
0 0 0
0 0 0
0 0 0
0 0 0
0 0 0
0.294172 -0.293487 0.110441
0.46672 -0.464628 0.194395
0.439092 -0.438196 0.179071
0.393895 -0.394141 0.156692
0.343088 -0.34417 0.132724
0.30995 -0.309213 0.107938
0.308422 -0.307243 0.0913395
0.297697 -0.295838 0.0671957
0.27921 -0.272714 0.0342374
0.263935 -0.26448 0.106711
0.379536 -0.371362 0.0522242
0.458515 -0.443558 0.0632946
0.519473 -0.499068 0.0746318
0.553627 -0.531313 0.0808778
0.402521 -0.395856 0.0941224
0.476424 -0.468757 0.11252
0.536635 -0.52546 0.129111
0.574093 -0.557114 0.13931
0.402102 -0.400682 0.122099
0.474033 -0.469356 0.144137
0.53194 -0.524429 0.164609
0.566133 -0.556983 0.176472
0.397505 -0.39521 0.142986
0.459288 -0.456669 0.166464
0.513598 -0.511523 0.190573
0.547391 -0.542487 0.205294
0.405164 -0.408382 0.192189
0.382894 -0.386179 0.177754
0.348382 -0.349134 0.156025
0.304438 -0.304528 0.130745
0.245427 -0.24561 0.0930863
0.229346 -0.229145 0.0766715
0.204396 -0.204899 0.0544808
0.168157 -0.16541 0.0279757
0.300758 -0.293211 0.116225
0.301388 -0.273931 0.0407069
0.315369 -0.295089 0.0753979
0.322852 -0.307028 0.0995842
0.320682 -0.311087 0.116602
0.348451 -0.34228 0.138541
0.397794 -0.391494 0.161748
0.441723 -0.437179 0.182432
0.468961 -0.464346 0.196142
0.267334 -0.265325 0.11326
0.549195 -0.540834 0.207765
0.571742 -0.555085 0.1797
0.579313 -0.55625 0.142351
0.563534 -0.529376 0.0830693
0.518032 -0.508312 0.195366
0.539194 -0.521322 0.168987
0.548441 -0.522129 0.133923
0.532193 -0.497904 0.07949
0.464805 -0.453679 0.172304
0.48441 -0.465231 0.14975
0.491617 -0.464663 0.118316
0.478851 -0.444111 0.0696979
0.404625 -0.394207 0.149627
0.415764 -0.398094 0.128874
0.420826 -0.396089 0.102885
0.404484 -0.373418 0.0602015
0.186797 -0.173131 0.0363218
0.217793 -0.204102 0.0615011
0.238764 -0.230976 0.0835554
0.252755 -0.246694 0.0996191
0.304513 -0.302899 0.135315
0.347985 -0.348028 0.160564
0.384846 -0.385368 0.181509
0.407709 -0.410358 0.19538
0 0 0
0.485521 -0.461724 0.058393
0.425997 -0.412222 0.0907982
0.360178 -0.357728 0.112571
0.284497 -0.292098 0.13343
0.218401 -0.229462 0.127213
0.116718 -0.137764 0.138511
0 0 0
0 0 0
0 0 0
0 0 0
0 0 0
0 0 0
0 0 0
0 0 0
0 0 0
0 0 0
0 0 0
0 0 0
0 0 0
0 0 0
0 0 0
0 0 0
0 0 0
0 0 0
0.13701 -0.172661 0.0631654
0.210966 -0.234504 0.12106
0.195215 -0.228797 0.110052
0.176951 -0.214936 0.0942291
0.152373 -0.194234 0.0779786
0.153034 -0.187595 0.0608697
0.181698 -0.201993 0.0497462
0.210586 -0.216672 0.0377345
0.236539 -0.234368 0.0198389
0.0838961 -0.143238 0.0648438
0.315276 -0.312557 0.0330812
0.386327 -0.378967 0.0416516
0.438062 -0.425016 0.0494678
0.470507 -0.452737 0.0558445
0.275353 -0.290015 0.0544326
0.337347 -0.345225 0.06693
0.380513 -0.385287 0.0793173
0.412349 -0.407441 0.0861066
0.234441 -0.26063 0.069038
0.284475 -0.306031 0.0843419
0.321916 -0.338137 0.0979673
0.34821 -0.355654 0.107732
0.185811 -0.231989 0.0826966
0.22532 -0.26401 0.0989209
0.252629 -0.286249 0.11625
0.274334 -0.295156 0.12729
0.109557 -0.150963 0.133549
0.100882 -0.157875 0.120327
0.0929841 -0.157984 0.102194
0.087886 -0.151393 0.0824435
0.0912304 -0.139195 0.0525611
0.102604 -0.138385 0.0412396
0.113848 -0.134132 0.0280849
0.118221 -0.121317 0.017086
0.169817 -0.139566 0.0756331
0.262736 -0.232629 0.027475
0.232164 -0.210386 0.0459755
0.210942 -0.183104 0.0606929
0.189032 -0.157522 0.0731134
0.188194 -0.157393 0.0900405
0.206525 -0.182959 0.104635
0.220048 -0.204264 0.117852
0.22452 -0.222567 0.124959
0.134608 -0.0890542 0.0802436
0.287859 -0.280488 0.13198
0.359357 -0.345492 0.111966
0.422174 -0.402298 0.0898113
0.481585 -0.449379 0.0583701
0.279209 -0.25786 0.124758
0.34369 -0.32107 0.104947
0.40241 -0.372626 0.0852806
0.454808 -0.422004 0.0554701
0.260354 -0.230089 0.109657
0.313311 -0.284154 0.0934021
0.363275 -0.332762 0.0747363
0.411719 -0.375575 0.0487929
0.22919 -0.189351 0.0968195
0.26801 -0.236701 0.0799325
0.309542 -0.274032 0.064855
0.342215 -0.310412 0.0415603
0.13798 -0.122087 0.0243014
0.143292 -0.115037 0.0379304
0.140001 -0.105389 0.0536484
0.135653 -0.0945966 0.0672944
0.137521 -0.0946494 0.0977152
0.140485 -0.104214 0.116252
0.137673 -0.116853 0.131059
0.13056 -0.129463 0.140022
0.756781 -0.648668 -0.179303
0 0 0
0 0 0
0 0 0
0.732612 -0.639007 -0.178305
0.687931 -0.60069 -0.167787
0.606776 -0.53523 -0.148315
0.496218 -0.444646 -0.124093
0.359895 -0.324627 -0.0893462
0.19802 -0.177729 -0.0503506
0.735754 -0.633654 -0.177231
0.694612 -0.595748 -0.167759
0.614174 -0.527776 -0.149945
0.513256 -0.440538 -0.122515
0.373159 -0.321704 -0.0923835
0.211165 -0.181077 -0.0510797
0 0 0
0 0 0
0 0 0
0 0 0
0 0 0
0 0 0
0 0 0
0 0 0
0 0 0
0.209331 -0.170206 -0.0476371
0.380117 -0.30963 -0.0897419
0.518748 -0.42795 -0.12001
0.625801 -0.521754 -0.14765
0.700692 -0.589572 -0.164691
0.742638 -0.632016 -0.177829
0 0 0
0 0 0
0 0 0
0 0 0
0 0 0
0 0 0
0 0 0
0 0 0
0 0 0
0.214829 -0.190853 -0.0533238
0.367937 -0.318475 -0.0883648
0.342924 -0.299916 -0.0844461
0.305355 -0.269956 -0.0748951
0.257588 -0.229335 -0.0639033
0.253186 -0.227455 -0.0633672
0.298488 -0.266761 -0.0745462
0.332984 -0.300198 -0.0832982
0.357787 -0.319632 -0.0891798
0.136448 -0.124427 -0.0332104
0.48792 -0.434519 -0.120708
0.592776 -0.523773 -0.14643
0.667955 -0.58661 -0.162661
0.721909 -0.623848 -0.174998
0.457341 -0.407257 -0.113458
0.553357 -0.488602 -0.13631
0.629586 -0.5506 -0.154464
0.671106 -0.583479 -0.16326
0.405352 -0.361155 -0.101018
0.49361 -0.4364 -0.121244
0.557589 -0.486897 -0.137543
0.602393 -0.522463 -0.145057
0.342934 -0.304601 -0.0844274
0.411273 -0.361705 -0.101994
0.467444 -0.41024 -0.113984
0.5 -0.433892 -0.123842
0.213349 -0.185826 -0.0533885
0.20121 -0.176149 -0.0495998
0.179774 -0.159102 -0.0440459
0.156698 -0.138137 -0.0400045
0.152957 -0.134709 -0.0385245
0.171129 -0.156785 -0.0428185
0.193654 -0.173412 -0.0486876
0.202412 -0.186223 -0.0510972
0.223753 -0.184328 -0.0524443
0.373558 -0.304902 -0.0858228
0.351505 -0.287974 -0.0829908
0.314466 -0.257862 -0.0734618
0.269134 -0.221663 -0.0636032
0.267289 -0.221757 -0.0636722
0.312994 -0.261246 -0.0739659
0.350183 -0.296367 -0.0849975
0.373805 -0.317449 -0.0882042
0.145399 -0.119893 -0.0348896
0.503513 -0.429277 -0.123057
0.608104 -0.517261 -0.145279
0.679125 -0.577964 -0.162342
0.728569 -0.618331 -0.173875
0.475236 -0.400557 -0.11323
0.569149 -0.47981 -0.136663
0.64221 -0.540513 -0.153218
0.683649 -0.577053 -0.161796
0.423286 -0.353885 -0.101233
0.508796 -0.424894 -0.120616
0.5721 -0.477247 -0.135406
0.611955 -0.510464 -0.143766
0.355906 -0.294827 -0.0839732
0.425418 -0.351918 -0.100708
0.478729 -0.39558 -0.112444
0.511618 -0.422389 -0.120362
0.21551 -0.174076 -0.050756
0.20374 -0.16524 -0.0470738
0.185361 -0.151076 -0.043903
0.161653 -0.132234 -0.0378529
0.16068 -0.132908 -0.038059
0.185604 -0.155654 -0.0452003
0.207134 -0.17445 -0.0494718
0.218885 -0.187134 -0.0545778
0 0 0
0.740962 -0.638725 -0.17976
0.699742 -0.600775 -0.165887
0.627078 -0.539142 -0.148665
0.524287 -0.452446 -0.1245
0.385674 -0.329135 -0.0947969
0.222699 -0.193745 -0.0498483
0 0 0
0 0 0
0 0 0
0 0 0
0 0 0
0 0 0
0 0 0
0 0 0
0 0 0
0 0 0
0 0 0
0 0 0
0 0 0
0 0 0
0 0 0
0 0 0
0 0 0
0 0 0
0.214963 -0.195212 -0.0564459
0.378356 -0.332226 -0.0910809
0.351299 -0.309645 -0.0865311
0.312667 -0.276197 -0.0769695
0.267518 -0.236064 -0.0654765
0.262127 -0.234081 -0.0632265
0.29842 -0.269846 -0.0761706
0.339321 -0.303795 -0.0843837
0.356543 -0.320885 -0.0914917
0.144957 -0.128226 -0.034148
0.493121 -0.437047 -0.120987
0.593518 -0.526402 -0.146491
0.672032 -0.59086 -0.164311
0.724938 -0.625679 -0.172632
0.457488 -0.411474 -0.114278
0.56107 -0.495219 -0.137747
0.634999 -0.555201 -0.153573
0.68019 -0.592688 -0.164706
0.415509 -0.368456 -0.102161
0.49926 -0.442176 -0.122808
0.567245 -0.498062 -0.137851
0.610526 -0.530557 -0.147049
0.345567 -0.310617 -0.0879954
0.421377 -0.37293 -0.103118
0.478665 -0.418394 -0.116007
0.513079 -0.444392 -0.123539
0.223014 -0.19308 -0.0544786
0.211524 -0.184926 -0.0506256
0.187464 -0.166951 -0.0457043
0.159704 -0.143052 -0.0407205
0.152267 -0.138557 -0.0397441
0.17804 -0.159763 -0.0442131
0.193713 -0.17528 -0.0493462
0.205028 -0.186981 -0.0518078
0.230514 -0.190315 -0.0530282
0.374924 -0.306805 -0.086085
0.355905 -0.290593 -0.0830352
0.320402 -0.262621 -0.0737142
0.275766 -0.226888 -0.0636904
0.275096 -0.228277 -0.064124
0.322942 -0.270235 -0.0750057
0.361608 -0.304122 -0.0859018
0.385604 -0.33036 -0.089431
0.151117 -0.124402 -0.0349208
0.516851 -0.440191 -0.12243
0.616763 -0.525325 -0.146361
0.689556 -0.586832 -0.163288
0.730252 -0.621609 -0.171269
0.486573 -0.41034 -0.114253
0.580077 -0.489406 -0.135772
0.648076 -0.546112 -0.152091
0.688466 -0.580535 -0.16286
0.433412 -0.362236 -0.101228
0.517539 -0.431567 -0.12101
0.579113 -0.482985 -0.135541
0.614999 -0.512781 -0.143182
0.365007 -0.301977 -0.0847589
0.432787 -0.357799 -0.100645
0.484151 -0.399649 -0.112139
0.514629 -0.424327 -0.120771
0.217253 -0.174668 -0.0509647
0.2063 -0.168506 -0.0471315
0.189543 -0.15417 -0.0437743
0.166637 -0.137468 -0.0379276
0.167784 -0.140106 -0.0380366
0.19405 -0.162262 -0.0454724
0.217622 -0.185118 -0.0495333
0.229662 -0.194243 -0.0555399
0.232593 -0.16601 -0.321518
0 0 0
0 0 0
0 0 0
0.224936 -0.171784 -0.312449
0.209782 -0.155964 -0.292094
0.186282 -0.141063 -0.259543
0.153541 -0.113672 -0.213952
0.11028 -0.0837418 -0.153392
0.0613936 -0.0460098 -0.0861452
0.225328 -0.171429 -0.311861
0.211784 -0.155579 -0.289261
0.18601 -0.139802 -0.257491
0.156576 -0.114468 -0.210698
0.109575 -0.0829197 -0.15214
0.0631124 -0.0458245 -0.0842749
0 0 0
0 0 0
0 0 0
0 0 0
0 0 0
0 0 0
0 0 0
0 0 0
0 0 0
0.0667625 -0.0447959 -0.0888978
0.1142 -0.0862269 -0.159175
0.159355 -0.115409 -0.218997
0.191548 -0.140748 -0.26347
0.21513 -0.155216 -0.295647
0.226287 -0.172815 -0.313339
0 0 0
0 0 0
0 0 0
0 0 0
0 0 0
0 0 0
0 0 0
0 0 0
0 0 0
0.0642473 -0.0500208 -0.0877323
0.111875 -0.0823542 -0.150309
0.101666 -0.0772 -0.140631
0.0920722 -0.0694129 -0.125309
0.0780714 -0.0581451 -0.106857
0.0765301 -0.0580184 -0.106741
0.0902672 -0.06866 -0.125244
0.101977 -0.0774879 -0.14157
0.109976 -0.0823476 -0.153087
0.0412522 -0.0313259 -0.0569189
0.149215 -0.113524 -0.208009
0.181266 -0.135329 -0.251776
0.205863 -0.154812 -0.284833
0.220523 -0.160576 -0.304578
0.139527 -0.104657 -0.193619
0.169404 -0.127549 -0.234902
0.191552 -0.142696 -0.264227
0.205274 -0.154705 -0.284646
0.123761 -0.0931563 -0.171221
0.150021 -0.112734 -0.206496
0.169453 -0.127388 -0.234301
0.183708 -0.135572 -0.250192
0.103266 -0.0783616 -0.141984
0.124075 -0.0931079 -0.171651
0.14217 -0.105473 -0.193351
0.149501 -0.112815 -0.207482
0.0614987 -0.0463533 -0.0847585
0.0599896 -0.0439454 -0.0810716
0.0530487 -0.0398196 -0.0728906
0.046255 -0.0352242 -0.0633586
0.0456463 -0.0346949 -0.0624527
0.0523895 -0.03964 -0.0728733
0.0591847 -0.0441034 -0.0820165
0.0614797 -0.0469858 -0.0872451
0.0670284 -0.0490096 -0.0911781
0.115278 -0.0818224 -0.156719
0.106312 -0.0783168 -0.14605
0.0954028 -0.0692158 -0.129774
0.0808287 -0.0593257 -0.11013
0.0797395 -0.0587074 -0.108621
0.0939116 -0.068728 -0.127185
0.103705 -0.0774405 -0.142357
0.113606 -0.0826565 -0.152192
0.0434481 -0.0316057 -0.0583857
0.150291 -0.112671 -0.207671
0.184886 -0.135677 -0.251634
0.206985 -0.154437 -0.286239
0.222788 -0.161977 -0.305826
0.143787 -0.105244 -0.194775
0.172477 -0.127792 -0.236716
0.195623 -0.143514 -0.267015
0.208709 -0.155201 -0.2883
0.127162 -0.0940011 -0.173759
0.154233 -0.113096 -0.210336
0.17421 -0.128055 -0.239071
0.186805 -0.136743 -0.256559
0.107199 -0.078333 -0.145704
0.12879 -0.0943554 -0.176009
0.145931 -0.106386 -0.199223
0.155864 -0.11423 -0.213967
0.0648378 -0.0484652 -0.0900869
0.0627493 -0.0446272 -0.0846733
0.0559312 -0.0407684 -0.0762735
0.0484156 -0.0353716 -0.0657807
0.0474805 -0.0347147 -0.0644802
0.054441 -0.0402765 -0.0738762
0.061475 -0.044854 -0.0825223
0.0627056 -0.0473747 -0.0865511
0 0 0
0.225667 -0.172773 -0.314285
0.214059 -0.155852 -0.298142
0.190215 -0.141695 -0.266553
0.157974 -0.116131 -0.221354
0.115715 -0.085274 -0.163194
0.0642567 -0.0472735 -0.0910317
0 0 0
0 0 0
0 0 0
0 0 0
0 0 0
0 0 0
0 0 0
0 0 0
0 0 0
0 0 0
0 0 0
0 0 0
0 0 0
0 0 0
0 0 0
0 0 0
0 0 0
0 0 0
0.0660864 -0.0495208 -0.0940839
0.113221 -0.0835512 -0.160581
0.105997 -0.0787017 -0.15031
0.0940885 -0.0701375 -0.133806
0.079884 -0.0599183 -0.113605
0.0786044 -0.0593488 -0.111524
0.0921373 -0.068971 -0.13071
0.103046 -0.0782647 -0.144708
0.110411 -0.08199 -0.155906
0.0425636 -0.0321307 -0.0599703
0.14997 -0.114083 -0.210193
0.182231 -0.135734 -0.255064
0.206792 -0.154777 -0.28813
0.221922 -0.162372 -0.308205
0.141371 -0.105472 -0.198732
0.171372 -0.128744 -0.24011
0.193751 -0.144369 -0.271037
0.207831 -0.155669 -0.290306
0.125683 -0.0946822 -0.177347
0.152403 -0.113785 -0.214441
0.172873 -0.128833 -0.242832
0.185788 -0.137421 -0.259947
0.105655 -0.0790019 -0.149288
0.127334 -0.0952492 -0.179575
0.144289 -0.107334 -0.20288
0.154825 -0.114939 -0.217396
0.0654352 -0.0482395 -0.092246
0.0615027 -0.045666 -0.0871355
0.0553059 -0.0413021 -0.0781703
0.047735 -0.0357643 -0.0677166
0.0465871 -0.0349301 -0.0664719
0.0535744 -0.0406493 -0.0752682
0.059468 -0.0444254 -0.0855049
0.0625566 -0.0480312 -0.086947
0.0690264 -0.0494758 -0.0971214
0.117008 -0.0815772 -0.158986
0.107723 -0.0791232 -0.15014
0.0977645 -0.0697711 -0.135651
0.0834727 -0.0601734 -0.116433
0.0830296 -0.0598104 -0.116082
0.0966823 -0.0697864 -0.136228
0.108618 -0.0793251 -0.152621
0.114891 -0.0838697 -0.162919
0.0451534 -0.032658 -0.062474
0.155933 -0.115319 -0.218082
0.187626 -0.136763 -0.261615
0.209723 -0.15784 -0.291526
0.224503 -0.159696 -0.311386
0.146526 -0.106951 -0.204793
0.176265 -0.130368 -0.245688
0.197619 -0.143209 -0.274761
0.209976 -0.157938 -0.290835
0.131012 -0.0958047 -0.182716
0.157217 -0.114341 -0.218965
0.17665 -0.13009 -0.244742
0.18773 -0.136615 -0.260362
0.109886 -0.0794454 -0.153408
0.131589 -0.0957924 -0.183019
0.147941 -0.1073 -0.204869
0.156739 -0.114537 -0.216781
0.0650076 -0.0498689 -0.0913261
0.0640872 -0.0442916 -0.0878053
0.0573305 -0.0418747 -0.0798416
0.0501301 -0.0357439 -0.0699349
0.0494663 -0.0355405 -0.069182
0.0573375 -0.0414773 -0.0799154
0.0633718 -0.0460495 -0.0893542
0.0673683 -0.0493818 -0.0943463
0.377398 -0.507365 0.721096
0 0 0
0 0 0
0 0 0
0.362493 -0.49516 0.708063
0.340593 -0.465785 0.657335
0.294444 -0.415898 0.585764
0.246195 -0.340275 0.478994
0.173849 -0.249769 0.349275
0.0963415 -0.135994 0.191539
0.366239 -0.495962 0.714752
0.345642 -0.467623 0.673908
0.305193 -0.414432 0.604562
0.253807 -0.346045 0.501526
0.183556 -0.249496 0.371316
0.102493 -0.140502 0.205816
0 0 0
0 0 0
0 0 0
0 0 0
0 0 0
0 0 0
0 0 0
0 0 0
0 0 0
0.109409 -0.136525 0.202709
0.191064 -0.24716 0.364165
0.264796 -0.339764 0.49652
0.314003 -0.411569 0.599036
0.352688 -0.464205 0.669129
0.368862 -0.494842 0.713006
0 0 0
0 0 0
0 0 0
0 0 0
0 0 0
0 0 0
0 0 0
0 0 0
0 0 0
0.102797 -0.148674 0.212596
0.179533 -0.249381 0.362774
0.166897 -0.232761 0.339809
0.14805 -0.209866 0.302756
0.125118 -0.1778 0.255878
0.12328 -0.17585 0.251821
0.144278 -0.20725 0.294357
0.16207 -0.232167 0.328279
0.173916 -0.246923 0.347819
0.0682735 -0.0947518 0.135545
0.237459 -0.337581 0.476067
0.292524 -0.40574 0.574491
0.32954 -0.45693 0.651162
0.357542 -0.488286 0.694898
0.223973 -0.315962 0.447745
0.270951 -0.380963 0.542453
0.310579 -0.429621 0.61261
0.33296 -0.456267 0.657797
0.197763 -0.280729 0.400741
0.242314 -0.339924 0.484739
0.273985 -0.380747 0.549124
0.297899 -0.409594 0.58825
0.166875 -0.237105 0.33832
0.200261 -0.281791 0.405855
0.22998 -0.31995 0.459637
0.246346 -0.337774 0.494247
0.103586 -0.142037 0.209714
0.0971084 -0.135983 0.197444
0.0876201 -0.122256 0.176327
0.0742245 -0.107295 0.154657
0.0721578 -0.106244 0.150584
0.084773 -0.120207 0.171341
0.093505 -0.134699 0.190443
0.0990669 -0.14278 0.200712
0.113572 -0.145383 0.222315
0.192277 -0.244009 0.361523
0.178355 -0.229888 0.343768
0.160982 -0.205681 0.30999
0.137323 -0.177375 0.265531
0.134733 -0.176335 0.264815
0.156594 -0.206549 0.30993
0.175237 -0.231436 0.347705
0.184506 -0.250098 0.368017
0.074186 -0.095962 0.144477
0.250502 -0.336389 0.496809
0.303649 -0.40711 0.593692
0.339391 -0.455756 0.663263
0.365006 -0.486937 0.701155
0.237421 -0.316504 0.466154
0.285727 -0.37946 0.558488
0.322881 -0.427318 0.623568
0.343074 -0.454748 0.661701
0.213155 -0.280306 0.416372
0.257001 -0.336455 0.498485
0.288341 -0.378803 0.557134
0.310021 -0.404139 0.59053
0.180277 -0.234129 0.351006
0.215418 -0.281105 0.417142
0.244251 -0.315283 0.466547
0.258091 -0.336034 0.494867
0.110048 -0.140627 0.210785
0.106127 -0.134135 0.201043
0.095491 -0.122011 0.183973
0.0829464 -0.106265 0.161133
0.0810503 -0.105473 0.158955
0.0929138 -0.121976 0.183292
0.101948 -0.137112 0.203077
0.107581 -0.144001 0.215573
0 0 0
0.363981 -0.493238 0.707136
0.348611 -0.463882 0.651721
0.303911 -0.410838 0.57824
0.256948 -0.337574 0.472751
0.1797 -0.244287 0.342883
0.104374 -0.134971 0.186371
0 0 0
0 0 0
0 0 0
0 0 0
0 0 0
0 0 0
0 0 0
0 0 0
0 0 0
0 0 0
0 0 0
0 0 0
0 0 0
0 0 0
0 0 0
0 0 0
0 0 0
0 0 0
0.104227 -0.141022 0.198674
0.184715 -0.241243 0.336071