# vtk DataFile Version 2.0
Square plate test
ASCII
DATASET UNSTRUCTURED_GRID
POINTS 7932 float
3.2478 -2.6014 -0.976783
3.5947 -2.19419 -0.918422
3.0726 -2.41133 -1.65297
2.87913 -3.03236 -1.03914
3.2994 -2.54107 -0.968065
3.351 -2.48075 -0.959347
3.40259 -2.42042 -0.950629
3.45419 -2.36009 -0.941911
3.50579 -2.29977 -0.933193
3.55739 -2.23944 -0.924475
3.22601 -2.57844 -1.06568
3.20422 -2.55548 -1.15458
3.18243 -2.53253 -1.24348
3.16064 -2.50957 -1.33239
3.13885 -2.48661 -1.42129
3.11707 -2.46366 -1.51019
3.13147 -2.34676 -1.63596
3.19265 -2.28794 -1.6046
3.25463 -2.2363 -1.55967
3.31588 -2.19311 -1.50228
3.3749 -2.15945 -1.43383
3.43024 -2.13613 -1.35602
3.48052 -2.12374 -1.27075
3.52452 -2.12257 -1.18013
3.56114 -2.13266 -1.0864
2.93821 -2.96335 -1.02909
2.98981 -2.90303 -1.02037
3.04141 -2.8427 -1.01165
3.09301 -2.78238 -1.00294
3.1446 -2.72205 -0.994219
3.1962 -2.66172 -0.985501
2.84145 -2.97408 -1.20799
2.83152 -2.93279 -1.29722
2.83128 -2.8828 -1.38045
2.84074 -2.82534 -1.45562
2.85967 -2.76184 -1.52089
2.88759 -2.69386 -1.57464
2.92383 -2.62306 -1.61557
2.96748 -2.55119 -1.64265
3.01749 -2.48003 -1.65522
3.37219 -2.25574 -1.30808
3.18948 -2.43065 -1.40706
3.24119 -2.37664 -1.38698
3.2924 -2.32697 -1.36037
3.33876 -2.28499 -1.33103
3.39476 -2.25602 -1.25734
3.42388 -2.25955 -1.18631
3.45313 -2.26837 -1.10566
3.48026 -2.28248 -1.02046
3.38143 -2.2294 -1.33386
3.43093 -2.34046 -1.02825
3.38008 -2.39916 -1.03815
3.32869 -2.45858 -1.04801
3.27727 -2.51849 -1.05706
3.40573 -2.32386 -1.11356
3.35606 -2.3803 -1.12481
3.30546 -2.43803 -1.13587
3.25477 -2.49668 -1.14551
3.37948 -2.31078 -1.195
3.3317 -2.36363 -1.20837
3.28225 -2.4187 -1.22156
3.23239 -2.47533 -1.23293
3.35553 -2.29947 -1.26821
3.30983 -2.34712 -1.2861
3.26084 -2.39896 -1.30395
3.21084 -2.45363 -1.31908
3.17141 -2.40535 -1.49181
3.22702 -2.35021 -1.46501
3.28243 -2.30074 -1.42873
3.33483 -2.25958 -1.3845
3.42244 -2.21466 -1.2685
3.46134 -2.20945 -1.19108
3.49707 -2.21268 -1.10583
3.52885 -2.22344 -1.01616
2.94392 -2.75537 -1.38235
2.97248 -2.87713 -1.10451
2.95873 -2.84739 -1.18746
2.94992 -2.81394 -1.26594
2.94569 -2.78053 -1.33414
2.96787 -2.71745 -1.39576
3.00273 -2.66522 -1.41004
3.04439 -2.60723 -1.41935
3.09045 -2.54726 -1.42232
2.92051 -2.76751 -1.4131
3.11167 -2.56888 -1.33704
3.13221 -2.59228 -1.25015
3.15308 -2.61584 -1.16224
3.17453 -2.63894 -1.07384
3.06449 -2.62825 -1.33762
3.08342 -2.65205 -1.2536
3.103 -2.67605 -1.16778
3.12363 -2.69924 -1.08103
3.02063 -2.68568 -1.33419
3.03703 -2.71008 -1.25474
3.05446 -2.73496 -1.17217
3.07342 -2.75889 -1.08786
2.9814 -2.73743 -1.33048
2.99344 -2.7638 -1.25726
3.00731 -2.79128 -1.17804
3.02365 -2.8175 -1.09552
2.92183 -2.93371 -1.11773
2.91076 -2.89863 -1.20411
2.90657 -2.85798 -1.28495
2.90968 -2.81365 -1.35603
2.94488 -2.71455 -1.45204
2.979 -2.65515 -1.48061
3.02042 -2.59219 -1.49918
3.06715 -2.52796 -1.50817
3.03799 -2.60845 -0.180924
3.22214 -2.60399 -0.875859
3.19647 -2.60659 -0.774935
3.17081 -2.60918 -0.674012
3.14514 -2.61178 -0.573087
3.11948 -2.61437 -0.472163
3.09382 -2.61697 -0.371239
3.09676 -2.54204 -0.179536
3.15821 -2.47703 -0.194567
3.22083 -2.41503 -0.225648
3.28308 -2.35754 -0.272013
3.34342 -2.306 -0.332518
3.40038 -2.26167 -0.405677
3.45255 -2.22565 -0.489686
3.49863 -2.19881 -0.582477
3.53751 -2.18182 -0.681765
2.82155 -3.01889 -0.802734
2.80922 -3.00483 -0.698959
2.80667 -2.98078 -0.598814
2.81393 -2.94732 -0.504763
2.83085 -2.90528 -0.419123
2.857 -2.85569 -0.344003
2.89173 -2.79978 -0.281251
2.9342 -2.73893 -0.232415
2.98336 -2.67462 -0.198696
3.35617 -2.36137 -0.523306
3.17036 -2.55671 -0.470571
3.22259 -2.49929 -0.475758
3.27461 -2.44424 -0.489144
3.32195 -2.39582 -0.50771
3.38087 -2.34759 -0.577096
3.413 -2.33129 -0.653319
3.4457 -2.31742 -0.741304
3.47649 -2.30735 -0.835685
3.36416 -2.34324 -0.488185
3.42718 -2.36517 -0.844687
3.37628 -2.42426 -0.851666
3.32483 -2.48403 -0.858915
3.27339 -2.54405 -0.867155
3.3983 -2.37287 -0.749457
3.3485 -2.43017 -0.754332
3.29779 -2.48865 -0.7598
3.24705 -2.54762 -0.767044
3.36855 -2.38288 -0.659363
3.32053 -2.43732 -0.660937
3.27086 -2.49384 -0.663357
3.22086 -2.55135 -0.668172
3.34145 -2.39231 -0.578513
3.29529 -2.44301 -0.573751
3.24587 -2.49772 -0.570286
3.19556 -2.55439 -0.570529
3.14858 -2.5559 -0.37335
3.20499 -2.49555 -0.385313
3.26161 -2.438 -0.408994
3.31562 -2.38623 -0.443564
3.40783 -2.31098 -0.552974
3.44995 -2.28452 -0.63337
3.48929 -2.264 -0.724559
3.5249 -2.24949 -0.822678
2.92781 -2.86158 -0.593322
2.96879 -2.90149 -0.923613
2.95138 -2.89591 -0.826974
2.93906 -2.88555 -0.733958
2.93176 -2.87237 -0.651836
2.95097 -2.82889 -0.56785
2.98491 -2.78271 -0.537193
3.02583 -2.72962 -0.510087
3.0714 -2.67287 -0.489105
2.90319 -2.88175 -0.564385
3.09634 -2.67 -0.585808
3.12067 -2.66839 -0.684738
3.14537 -2.66665 -0.784789
3.17068 -2.66433 -0.885226
3.04949 -2.72715 -0.602849
3.0721 -2.72672 -0.698861
3.09542 -2.72598 -0.79683
3.11985 -2.72421 -0.895549
3.00613 -2.78134 -0.623564
3.02601 -2.78275 -0.714911
3.04706 -2.78375 -0.809705
3.06971 -2.78336 -0.90607
2.96737 -2.82998 -0.642889
2.98265 -2.83501 -0.728231
3 -2.83944 -0.82025
3.01998 -2.84175 -0.915397
2.91792 -2.95946 -0.92646
2.90301 -2.94971 -0.824595
2.89517 -2.93309 -0.726939
2.89503 -2.91023 -0.638515
2.92559 -2.8417 -0.507415
2.95815 -2.79259 -0.459509
2.99841 -2.7373 -0.421121
3.04437 -2.67814 -0.392505
3.84146 -3.19696 -0.953714
3.31798 -2.6725 -0.973592
3.38815 -2.7436 -0.970401
3.45833 -2.8147 -0.96721
3.52851 -2.8858 -0.964019
3.59869 -2.95691 -0.960828
3.66886 -3.02801 -0.957637
3.89183 -3.12585 -0.944515
3.92967 -3.04523 -0.936072
3.95404 -2.95709 -0.928592
3.96436 -2.86361 -0.922261
3.96036 -2.76707 -0.917233
3.94215 -2.66986 -0.913633
3.91017 -2.57437 -0.911548
3.86521 -2.48296 -0.911032
3.80837 -2.39787 -0.912095
3.1011 -3.22478 -1.0316
3.18417 -3.2792 -1.0261
3.27213 -3.32034 -1.01935
3.36282 -3.34718 -1.01151
3.45401 -3.35907 -1.00279
3.54345 -3.35571 -0.993377
3.62895 -3.33718 -0.983521
3.70838 -3.30395 -0.97346
3.77981 -3.25682 -0.963442
3.7524 -2.64459 -0.927354
3.64319 -2.89468 -0.952732
3.68266 -2.82815 -0.944909
3.71449 -2.75867 -0.937706
3.73764 -2.69295 -0.931607
3.72432 -2.59308 -0.927325
3.6821 -2.52365 -0.927736
3.62966 -2.44891 -0.928899
3.56978 -2.37403 -0.930817
3.79114 -2.64844 -0.923588
3.51986 -2.43141 -0.939196
3.47043 -2.49156 -0.947681
3.4203 -2.55227 -0.95627
3.36927 -2.61259 -0.964929
3.58213 -2.50427 -0.936917
3.53555 -2.56387 -0.945078
3.48766 -2.62437 -0.953425
3.43814 -2.68421 -0.961902
3.63898 -2.57619 -0.935142
3.59692 -2.63489 -0.942788
3.55269 -2.69529 -0.950753
3.506 -2.75516 -0.958941
3.68968 -2.64122 -0.933611
3.65495 -2.7001 -0.940512
3.61629 -2.76249 -0.948018
3.5735 -2.82454 -0.955928
3.71328 -2.95955 -0.949197
3.75012 -2.88521 -0.941204
3.77647 -2.80602 -0.934014
3.79069 -2.72581 -0.928013
3.7691 -2.56921 -0.921371
3.73154 -2.48579 -0.920512
3.68179 -2.4016 -0.920862
3.62259 -2.31931 -0.922292
3.32618 -3.14634 -0.999561
3.06012 -2.96677 -1.01675
3.13338 -3.02601 -1.01257
3.20765 -3.07753 -1.00785
3.27625 -3.11862 -1.00313
3.36897 -3.12768 -0.994107
3.42561 -3.09772 -0.986589
3.48491 -3.05777 -0.978232
3.54258 -3.00967 -0.969582
3.3317 -3.18805 -1.00135
3.47563 -2.94112 -0.972585
3.40614 -2.87244 -0.975843
3.33594 -2.80287 -0.979122
3.26591 -2.73239 -0.982334
3.42047 -2.99233 -0.981153
3.35218 -2.92692 -0.984473
3.28272 -2.85986 -0.987819
3.2135 -2.79115 -0.991047
3.36492 -3.0378 -0.989437
3.29857 -2.97757 -0.99285
3.23007 -2.91456 -0.996326
3.16149 -2.84897 -0.999664
3.31452 -3.07813 -0.9969
3.24975 -3.02594 -1.00061
3.18065 -2.96857 -1.00446
3.11092 -2.90675 -1.00813
3.01449 -3.02848 -1.02493
3.09462 -3.08667 -1.01999
3.17691 -3.13448 -1.01424
3.2573 -3.16918 -1.00794
3.40253 -3.18262 -0.993766
3.4737 -3.16111 -0.985232
3.54272 -3.12637 -0.976171
3.60766 -3.08077 -0.966914
2.24841 -1.7882 -0.715561
2.64731 -1.32182 -0.648163
2.19743 -1.6577 -1.31685
1.84951 -2.25458 -0.78296
2.3054 -1.72157 -0.705933
2.36238 -1.65495 -0.696305
2.41937 -1.58832 -0.686676
2.47635 -1.5217 -0.677048
2.53334 -1.45507 -0.667419
2.59033 -1.38844 -0.657791
2.24113 -1.76955 -0.80146
2.23384 -1.75091 -0.887358
2.22656 -1.73227 -0.973256
2.21928 -1.71363 -1.05916
2.212 -1.69498 -1.14505
2.20471 -1.67634 -1.23095
2.26046 -1.58635 -1.2989
2.32319 -1.51997 -1.26659
2.38408 -1.46019 -1.22072
2.44164 -1.40849 -1.1624
2.49443 -1.36614 -1.09308
2.54116 -1.33418 -1.01446
2.58069 -1.3134 -0.928488
2.61204 -1.30432 -0.83727
2.63443 -1.30715 -0.743054
1.90649 -2.18795 -0.773332
1.96348 -2.12133 -0.763703
2.02046 -2.0547 -0.754075
2.07745 -1.98807 -0.744447
2.13444 -1.92145 -0.734818
2.19142 -1.85482 -0.72519
1.84644 -2.22842 -0.876192
1.85328 -2.19143 -0.96547
1.86984 -2.1445 -1.04859
1.89573 -2.0888 -1.12352
1.93029 -2.0257 -1.1884
1.9727 -1.95675 -1.24163
2.02189 -1.88365 -1.28191
2.07666 -1.80821 -1.30825
2.13566 -1.73226 -1.31999
2.45517 -1.43419 -1.03066
2.26679 -1.63273 -1.13016
2.32167 -1.57218 -1.10962
2.37469 -1.51592 -1.08282
2.42165 -1.46786 -1.05352
2.47085 -1.43081 -0.981387
2.48999 -1.42949 -0.912476
2.5074 -1.43328 -0.83432
2.52148 -1.4425 -0.751839
2.47075 -1.40726 -1.05519
2.46689 -1.5065 -0.760522
2.41099 -1.57143 -0.771271
2.35447 -1.63715 -0.781982
2.29775 -1.70335 -0.791928
2.45502 -1.49455 -0.843052
2.40073 -1.55711 -0.855072
2.34534 -1.62106 -0.866924
2.28957 -1.68593 -0.877416
2.44119 -1.48617 -0.921901
2.38947 -1.54496 -0.9359
2.33581 -1.60615 -0.94977
2.28132 -1.66893 -0.9619
2.42837 -1.47913 -0.992784
2.3799 -1.53256 -1.01108
2.32767 -1.59057 -1.0294
2.27376 -1.65146 -1.04516
2.26292 -1.61122 -1.21198
2.32092 -1.54896 -1.18489
2.3768 -1.4922 -1.1487
2.42771 -1.44395 -1.10495
2.50454 -1.38637 -0.991435
2.53355 -1.37503 -0.916141
2.55742 -1.37237 -0.833412
2.57591 -1.37762 -0.746524
1.98255 -1.98615 -1.11241
1.96033 -2.09912 -0.844923
1.96103 -2.07262 -0.924905
1.96645 -2.04174 -1.00048
1.97507 -2.01016 -1.06607
2.01243 -1.94564 -1.12471
2.05491 -1.88955 -1.13757
2.10414 -1.82678 -1.1455
2.15714 -1.7614 -1.14723
[...]
POINT_DATA 7932
VECTORS VelocityField float
0.49857 -0.460639 0.00263217
0 0 0
0 0 0
0 0 0
0.481957 -0.447335 -0.00157963
0.445975 -0.417415 -0.0031546
0.391669 -0.368135 -0.00675883
0.320462 -0.303068 -0.0085969
0.229929 -0.217217 -0.00910843
0.12577 -0.120058 -0.00776367
0.478222 -0.43019 -0.0460865
0.455362 -0.400003 -0.0932292
0.414992 -0.356788 -0.121317
0.361874 -0.305842 -0.13561
0.285046 -0.237871 -0.125296
0.201643 -0.165192 -0.109157
0 0 0
0 0 0
0 0 0
0 0 0
0 0 0
0 0 0
0 0 0
0 0 0
0 0 0
0.167061 -0.147044 0.0025153
0.272475 -0.240539 0.00423897
0.366287 -0.326676 0.00480801
0.429085 -0.386314 0.00579328
0.473196 -0.430783 0.00547661
0.496143 -0.454339 0.00331973
0 0 0
0 0 0
0 0 0
0 0 0
0 0 0
0 0 0
0 0 0
0 0 0
0 0 0
0.187085 -0.152666 -0.0709796
0.283378 -0.23399 -0.122974
0.269784 -0.220963 -0.114224
0.246015 -0.200604 -0.100421
0.217507 -0.175849 -0.0859328
0.20713 -0.1699 -0.0734161
0.221389 -0.18707 -0.0653524
0.231823 -0.202432 -0.052809
0.231785 -0.211109 -0.0292077
0.153055 -0.118982 -0.0659049
0.314322 -0.285194 -0.0390023
0.381233 -0.346259 -0.0428386
0.431333 -0.390916 -0.0462739
0.464013 -0.419842 -0.0470349
0.309396 -0.27027 -0.0689151
0.369051 -0.324088 -0.0789291
0.415348 -0.364675 -0.0874727
0.443752 -0.390128 -0.0912988
0.289254 -0.244646 -0.0856145
0.341701 -0.29086 -0.099433
0.381684 -0.3265 -0.111138
0.406497 -0.348756 -0.117884
0.262349 -0.21569 -0.0942242
0.304795 -0.252482 -0.10978
0.338253 -0.281934 -0.123896
0.357256 -0.299973 -0.133258
0.205421 -0.166374 -0.1081
0.199637 -0.158788 -0.101751
0.186308 -0.146649 -0.090853
0.168121 -0.132439 -0.0764996
0.150284 -0.120673 -0.0591949
0.152273 -0.123657 -0.0529167
0.150733 -0.127176 -0.0421218
0.136863 -0.121196 -0.0257794
0.181215 -0.15732 -0.072484
0.258805 -0.227951 -0.0226129
0.24484 -0.210653 -0.049598
0.225338 -0.195646 -0.0662472
0.203974 -0.177088 -0.0744236
0.208159 -0.180577 -0.0866848
0.23794 -0.204383 -0.101413
0.263712 -0.224889 -0.114514
0.28123 -0.236494 -0.123532
0.141275 -0.124231 -0.0656382
0.354553 -0.30141 -0.133562
0.407401 -0.351442 -0.118158
0.449107 -0.393149 -0.0898917
0.473314 -0.424715 -0.0442994
0.333322 -0.285979 -0.124534
0.383486 -0.331604 -0.110728
0.42378 -0.371746 -0.0845641
0.449383 -0.400521 -0.0404663
0.29939 -0.258204 -0.110291
0.34431 -0.298713 -0.0982898
0.381757 -0.332852 -0.074716
0.405812 -0.36114 -0.0356368
0.257061 -0.223586 -0.0952167
0.292693 -0.253833 -0.085042
0.32372 -0.282618 -0.0657091
0.34292 -0.301861 -0.0316284
0.1529 -0.128507 -0.0237156
0.154291 -0.134598 -0.0416541
0.150042 -0.130555 -0.05398
0.143965 -0.126348 -0.0609526
0.155299 -0.135445 -0.0769073
0.173913 -0.149699 -0.0902698
0.19107 -0.16199 -0.102112
0.202504 -0.168486 -0.108627
0 0 0
0.519193 -0.485836 0.0467997
0.532167 -0.506486 0.100272
0.523289 -0.503587 0.131064
0.498261 -0.48512 0.160128
0.423063 -0.415093 0.149797
0.353162 -0.35126 0.148866
0 0 0
0 0 0
0 0 0
0 0 0
0 0 0
0 0 0
0 0 0
0 0 0
0 0 0
0 0 0
0 0 0
0 0 0
0 0 0
0 0 0
0 0 0
0 0 0
0 0 0
0 0 0
0.259788 -0.256208 0.076488
0.414374 -0.406849 0.145281
0.388494 -0.383165 0.130264
0.349816 -0.344333 0.113569
0.305075 -0.298467 0.0939043
0.27527 -0.269574 0.0746002
0.2739 -0.269107 0.0604622
0.266894 -0.260496 0.0392797
0.248388 -0.239253 0.0120291
0.233224 -0.227559 0.0769312
0.341561 -0.326768 0.0230733
0.411465 -0.39272 0.030694
0.467515 -0.443577 0.0373746
0.502287 -0.474444 0.045618
0.358418 -0.348945 0.0594335
0.427077 -0.413243 0.0710099
0.482286 -0.464572 0.0858842
0.517224 -0.494884 0.0922765
0.359558 -0.349974 0.0810979
0.423613 -0.413067 0.099112
0.476035 -0.461737 0.113393
0.508849 -0.491946 0.127297
0.352263 -0.346038 0.100612
0.408175 -0.399032 0.11808
0.45833 -0.447757 0.139619
0.487835 -0.475562 0.149344
0.353883 -0.351404 0.14472
0.335758 -0.332479 0.133168
0.304901 -0.301367 0.114716
0.267534 -0.263979 0.0952341
0.216491 -0.213098 0.0651442
0.203698 -0.198506 0.0514646
0.182436 -0.178446 0.0343509
0.156675 -0.15058 0.0153738
0.268912 -0.258847 0.0913379
0.282843 -0.255086 0.0275177
0.291886 -0.267244 0.058287
0.293811 -0.275802 0.0778399
0.288581 -0.275692 0.0916866
0.310903 -0.301038 0.108555
0.354448 -0.344687 0.125638
0.393286 -0.383303 0.140297
0.416418 -0.408057 0.149831
0.235552 -0.230737 0.0899692
0.490771 -0.476343 0.155617
0.514945 -0.493631 0.13343
0.526288 -0.497461 0.098727
0.514023 -0.478529 0.050957
0.463442 -0.448677 0.149801
0.487679 -0.464375 0.125406
0.498412 -0.468831 0.096668
0.489654 -0.450977 0.0483916
0.416961 -0.401499 0.132735
0.438815 -0.415951 0.113685
0.449864 -0.418732 0.0866461
0.442168 -0.405425 0.0445342
0.363045 -0.349189 0.116989
0.377765 -0.356576 0.099611
0.386034 -0.358121 0.0772613
0.37649 -0.342654 0.0411356
0.176849 -0.159213 0.0300942
0.198929 -0.185662 0.0498548
0.215763 -0.205636 0.0679194
0.224539 -0.217325 0.0797109
0.266727 -0.262746 0.106705
0.304016 -0.300584 0.125544
0.335181 -0.332697 0.141002
0.355883 -0.352884 0.149964
0 0 0
0.448655 -0.424644 0.0314681
0.39742 -0.388466 0.0630259
0.341664 -0.344561 0.0855512
0.274508 -0.28939 0.109597
0.215887 -0.234361 0.107365
0.120509 -0.150368 0.128445
0 0 0
0 0 0
0 0 0
0 0 0
0 0 0
0 0 0
0 0 0
0 0 0
0 0 0
0 0 0
0 0 0
0 0 0
0 0 0
0 0 0
0 0 0
0 0 0
0 0 0
0 0 0
0.135311 -0.17234 0.0461752
0.208932 -0.237669 0.10017
0.193355 -0.231016 0.0887854
0.175136 -0.2158 0.07366
0.150846 -0.194603 0.0592036
0.148717 -0.184323 0.0425763
0.172434 -0.193641 0.0305971
0.195014 -0.203207 0.0187297
0.213755 -0.211745 0.00230939
0.0863471 -0.148344 0.0509386
0.287334 -0.283949 0.011113
0.352256 -0.344527 0.0161072
0.400383 -0.387561 0.0225034
0.433151 -0.415249 0.0285088
0.255335 -0.270445 0.0308658
0.312277 -0.321331 0.0401018
0.353586 -0.359821 0.0507605
0.383634 -0.381964 0.0571438
0.222219 -0.249461 0.0455896
0.26878 -0.29221 0.0578643
0.304413 -0.323614 0.0699849
0.329557 -0.341123 0.079634
0.18022 -0.227963 0.0606465
0.217556 -0.259003 0.0745911
0.243846 -0.281566 0.0907485
0.264906 -0.291788 0.101686
0.113433 -0.163645 0.121223
0.104831 -0.1692 0.106146
0.0967953 -0.167426 0.0874499
0.0911159 -0.158497 0.0675998
0.0921749 -0.141284 0.038279
0.10125 -0.137587 0.0273314
0.109187 -0.130403 0.0153755
0.112103 -0.119391 0.0071069
0.166438 -0.143856 0.0674082
0.252133 -0.224572 0.0170934
0.222981 -0.20406 0.0368022
0.202634 -0.181896 0.0505124
0.183352 -0.158793 0.0649111
0.184251 -0.160996 0.0806525
0.202685 -0.187513 0.0919238
0.215714 -0.209161 0.102118
0.221605 -0.227204 0.107046
0.134042 -0.0937832 0.0781735
0.277765 -0.278985 0.110165
0.340952 -0.334783 0.0869439
0.396498 -0.379692 0.0640357
0.445973 -0.418088 0.0340431
0.26963 -0.257343 0.106385
0.326811 -0.311588 0.0834436
0.378709 -0.355233 0.0628908
0.425191 -0.39281 0.0337365
0.250741 -0.229973 0.0947799
0.298978 -0.277952 0.0750512
0.343439 -0.317946 0.0567552
0.387232 -0.353683 0.0300405
0.221986 -0.191488 0.0852651
0.256782 -0.232402 0.066944
0.29484 -0.264716 0.0507588
0.324262 -0.293961 0.0293777
0.133394 -0.118428 0.0225912
0.138022 -0.11614 0.0344003
0.137432 -0.107052 0.0509025
0.134026 -0.0996657 0.0641373
0.1377 -0.102088 0.0944542
0.141059 -0.112635 0.112153
0.139823 -0.127068 0.125211
0.13316 -0.141268 0.131965
0.670269 -0.552921 -0.179447
0 0 0
0 0 0
0 0 0
0.651783 -0.54374 -0.176585
0.608046 -0.511173 -0.165357
0.536034 -0.455357 -0.147848
0.440641 -0.377151 -0.122395
0.318581 -0.274242 -0.0898189
0.17516 -0.153341 -0.0498789
0.654865 -0.540425 -0.1778
0.613834 -0.506795 -0.162367
0.545892 -0.450639 -0.147128
0.45224 -0.373672 -0.12059
0.330285 -0.273243 -0.0884588
0.186135 -0.153819 -0.0477147
0 0 0
0 0 0
0 0 0
0 0 0
0 0 0
0 0 0
0 0 0
0 0 0
0 0 0
0.189903 -0.144734 -0.0486984
0.338057 -0.264732 -0.0888295
0.463048 -0.365744 -0.120895
0.557 -0.444993 -0.14675
0.623043 -0.503832 -0.164566
0.660538 -0.539402 -0.17616
0 0 0
0 0 0
0 0 0
0 0 0
0 0 0
0 0 0
0 0 0
0 0 0
0 0 0
0.188851 -0.162124 -0.0514125
0.324439 -0.270403 -0.0860279
0.302632 -0.254646 -0.0814728
0.269048 -0.22817 -0.072512
0.227733 -0.194994 -0.0615782
0.224428 -0.193345 -0.0612251
0.262981 -0.226659 -0.0727285
0.295366 -0.254526 -0.0819089
0.315631 -0.272886 -0.0878369
0.121176 -0.105709 -0.03221
0.431798 -0.369341 -0.119634
0.524996 -0.444543 -0.143499
0.5936 -0.498818 -0.162751
0.638389 -0.53113 -0.170503
0.404052 -0.345233 -0.111247
0.490325 -0.415341 -0.134837
0.555525 -0.466985 -0.14996
0.59736 -0.497053 -0.163598
0.359252 -0.306779 -0.0986232
0.435868 -0.36907 -0.119011
0.494501 -0.414734 -0.134665
0.531508 -0.442824 -0.143151
0.301729 -0.257444 -0.0824132
0.363761 -0.307931 -0.0990175
0.412263 -0.346741 -0.1114
0.443512 -0.369018 -0.119842
0.188189 -0.157018 -0.0499334
0.177048 -0.149965 -0.0461571
0.158251 -0.135425 -0.0416336
0.137373 -0.117463 -0.0371147
0.133849 -0.115391 -0.0369652
0.152778 -0.133671 -0.0418838
0.170528 -0.149202 -0.0473487
0.180919 -0.158144 -0.0513414
0.199939 -0.157854 -0.0515305
0.334089 -0.260552 -0.0862648
0.313208 -0.245823 -0.0818543
0.280827 -0.220487 -0.072734
0.240163 -0.189313 -0.0623391
0.237922 -0.189413 -0.0618177
0.277778 -0.222985 -0.0722392
0.310759 -0.251787 -0.0820576
0.330512 -0.270249 -0.0864574
0.130661 -0.102464 -0.0335825
0.447003 -0.365525 -0.119313
0.53745 -0.439225 -0.142598
0.604198 -0.493913 -0.163638
0.645202 -0.528208 -0.169751
0.420386 -0.340626 -0.110944
0.50527 -0.409683 -0.1345
0.568991 -0.460412 -0.149635
0.608038 -0.491867 -0.162193
0.375447 -0.301635 -0.0988908
0.451236 -0.362189 -0.118808
0.508344 -0.40761 -0.13478
0.543908 -0.436202 -0.142738
0.316428 -0.251641 -0.0825185
0.378163 -0.300569 -0.0991663
0.42587 -0.337718 -0.111436
0.455116 -0.360261 -0.119503
0.193258 -0.148227 -0.0503542
0.184196 -0.141309 -0.0465331
0.166889 -0.128955 -0.0425474
0.145993 -0.113125 -0.0368926
0.143966 -0.114027 -0.0365499
0.165451 -0.132386 -0.0426961
0.184274 -0.148948 -0.0468226
0.193817 -0.158273 -0.0512522
0 0 0
0.658735 -0.544284 -0.175868
0.621452 -0.51347 -0.166672
0.556988 -0.460344 -0.150348
0.465029 -0.385206 -0.126439
0.342936 -0.283358 -0.0944417
0.194965 -0.162075 -0.0555346
0 0 0
0 0 0
0 0 0
0 0 0
0 0 0
0 0 0
0 0 0
0 0 0
0 0 0
0 0 0
0 0 0
0 0 0
0 0 0
0 0 0
0 0 0
0 0 0
0 0 0
0 0 0
0.193408 -0.16617 -0.0557474
0.334483 -0.280413 -0.0938252
0.312656 -0.262443 -0.0880424
0.276593 -0.234748 -0.0791222
0.234214 -0.200165 -0.0673085
0.229561 -0.197509 -0.0658203
0.266984 -0.230726 -0.0758944
0.298354 -0.257128 -0.0840112
0.316745 -0.275253 -0.0881725
0.125665 -0.108075 -0.036801
0.433846 -0.371734 -0.120317
0.527941 -0.447667 -0.144259
0.597166 -0.502229 -0.161876
0.641906 -0.534688 -0.173289
0.408484 -0.349567 -0.114135
0.495503 -0.420518 -0.137044
0.562421 -0.473374 -0.153678
0.604242 -0.503847 -0.163785
0.364827 -0.312484 -0.102322
0.443369 -0.37611 -0.122779
0.50326 -0.423164 -0.138157
0.541369 -0.452373 -0.146843
0.308717 -0.263441 -0.0875373
0.372205 -0.315732 -0.104794
0.422925 -0.356124 -0.117779
0.455098 -0.379688 -0.125314
0.197323 -0.164057 -0.0568517
0.184808 -0.15596 -0.0533744
0.165243 -0.13999 -0.0477374
0.141939 -0.121461 -0.0419393
0.13667 -0.118552 -0.0399399
0.15573 -0.135531 -0.0448584
0.172579 -0.150789 -0.0492957
0.181756 -0.159138 -0.052241
0.206537 -0.162594 -0.0546194
0.337343 -0.261348 -0.0857593
0.317746 -0.24894 -0.0829163
0.287218 -0.224478 -0.0742497
0.247102 -0.194259 -0.0650616
0.246303 -0.195481 -0.0657976
0.287968 -0.230924 -0.0772852
0.322285 -0.261105 -0.0872915
0.342139 -0.280609 -0.0934527
0.135519 -0.10595 -0.0364123
0.460048 -0.376492 -0.123957
0.548555 -0.449155 -0.145517
0.612445 -0.500512 -0.162725
0.649566 -0.530983 -0.172754
0.433199 -0.351017 -0.115672
0.51623 -0.418399 -0.13632
0.577418 -0.466588 -0.152175
0.612028 -0.495659 -0.160677
0.386763 -0.310276 -0.102724
0.461182 -0.369533 -0.120587
0.515551 -0.412739 -0.135455
0.548054 -0.438505 -0.142924
0.325881 -0.258494 -0.0859028
0.386588 -0.30624 -0.100913
0.432308 -0.341879 -0.112501
0.458596 -0.3622 -0.11951
0.194704 -0.149117 -0.0504571
0.186757 -0.143317 -0.0477202
0.170463 -0.131562 -0.0444917
0.150221 -0.116576 -0.0395169
0.150036 -0.118469 -0.040711
0.173024 -0.138302 -0.048053
0.193153 -0.155977 -0.0533607
0.203414 -0.166182 -0.0583313
0.212847 -0.169741 -0.269935
0 0 0
0 0 0
0 0 0
0.208097 -0.165274 -0.262454
0.193079 -0.1558 -0.246094
0.170357 -0.137693 -0.217642
0.140522 -0.113257 -0.179254
0.10008 -0.0818617 -0.129759
0.0547913 -0.0459776 -0.071475
0.209294 -0.165713 -0.261403
0.194305 -0.154596 -0.246051
0.173608 -0.138254 -0.215502
0.142723 -0.11335 -0.177823
0.103554 -0.0828142 -0.12793
0.0570272 -0.0450099 -0.0704287
0 0 0
0 0 0
0 0 0
0 0 0
0 0 0
0 0 0
0 0 0
0 0 0
0 0 0
0.0595896 -0.0459538 -0.0744139
0.108228 -0.082012 -0.132163
0.146599 -0.115713 -0.18403
0.176924 -0.138802 -0.21982
0.198577 -0.155814 -0.249077
0.210297 -0.166197 -0.263327
0 0 0
0 0 0
0 0 0
0 0 0
0 0 0
0 0 0
0 0 0
0 0 0
0 0 0
0.0591953 -0.0473719 -0.074685
0.10205 -0.0807931 -0.126723
0.0947819 -0.0764428 -0.118553
0.0845906 -0.0676393 -0.105906
0.0715728 -0.0577149 -0.0901345
0.0708124 -0.0579005 -0.0894195
0.0831448 -0.0671717 -0.105529
0.0932152 -0.0763241 -0.119198
0.10072 -0.0814545 -0.128134
0.0379094 -0.0306359 -0.0475463
0.136425 -0.111395 -0.175076
0.167018 -0.134555 -0.212189
0.189219 -0.151492 -0.239222
0.202431 -0.162453 -0.256942
0.128248 -0.103606 -0.162928
0.155808 -0.125842 -0.197352
0.176474 -0.141661 -0.223337
0.190616 -0.152158 -0.238284
0.113576 -0.0922142 -0.1441
0.138228 -0.111029 -0.174538
0.15684 -0.125891 -0.197152
0.168644 -0.134295 -0.212054
0.0948791 -0.0765442 -0.119979
0.114806 -0.0925287 -0.144484
0.130473 -0.104092 -0.163154
0.139932 -0.11206 -0.174715
0.0577552 -0.0467039 -0.0710945
0.0547708 -0.043537 -0.06781
0.0489766 -0.0397018 -0.0609727
0.0424877 -0.0339742 -0.053166
0.0414318 -0.0335495 -0.0524508
0.0476104 -0.0393427 -0.0609699
0.0534622 -0.0438714 -0.0685367
0.0562375 -0.0459201 -0.0733394
0.0623933 -0.0487009 -0.0766686
0.105316 -0.0830455 -0.132231
0.0995039 -0.0766936 -0.122047
0.0883837 -0.0691102 -0.109533
0.0754679 -0.0585845 -0.0923879
0.0745061 -0.0581905 -0.0912114
0.0869338 -0.0683839 -0.107393
0.0973943 -0.076925 -0.119876
0.10347 -0.0816284 -0.128638
0.0403434 -0.0310769 -0.0487401
0.141401 -0.111819 -0.174641
0.170034 -0.134607 -0.213531
0.193345 -0.152865 -0.238671
0.204923 -0.162185 -0.258957
0.132518 -0.104508 -0.16454
0.160793 -0.126636 -0.198854
0.180739 -0.14225 -0.225948
0.193843 -0.153038 -0.241072
0.118681 -0.0931089 -0.146086
0.143142 -0.112422 -0.177951
0.16199 -0.126995 -0.200031
0.173459 -0.136099 -0.216582
0.099552 -0.0779618 -0.122797
0.119815 -0.0933488 -0.147896
0.13521 -0.106086 -0.167534
0.145082 -0.111974 -0.179142
0.0607833 -0.0462655 -0.074637
0.0574291 -0.0444863 -0.0707864
0.0518731 -0.0400264 -0.0634941
0.045328 -0.0348595 -0.054747
0.0445228 -0.0342588 -0.0537154
0.0507774 -0.0398451 -0.0618145
0.0563151 -0.0442508 -0.0692325
0.0595529 -0.0473734 -0.072293
0 0 0
0.209346 -0.165617 -0.264717
0.195904 -0.155549 -0.25018
0.17499 -0.138479 -0.222628
0.143921 -0.114091 -0.184865
0.104933 -0.083181 -0.135448
0.0572943 -0.0451641 -0.0753578
0 0 0
0 0 0
0 0 0
0 0 0
0 0 0
0 0 0
0 0 0
0 0 0
0 0 0
0 0 0
0 0 0
0 0 0
0 0 0
0 0 0
0 0 0
0 0 0
0 0 0
0 0 0
0.0594721 -0.048523 -0.0781615
0.102686 -0.0816218 -0.133837
0.0959299 -0.0767976 -0.12477
0.085016 -0.0685454 -0.111337
0.0720534 -0.0584253 -0.0943613
0.0710217 -0.0579301 -0.0928428
0.0832692 -0.0679758 -0.10893
0.093437 -0.0765432 -0.121268
0.100668 -0.0819733 -0.129611
0.0379465 -0.0310413 -0.0495749
0.13641 -0.111511 -0.176765
0.167235 -0.134554 -0.214652
0.18977 -0.151368 -0.241458
0.203166 -0.16271 -0.25935
0.128771 -0.104162 -0.166127
0.156586 -0.12625 -0.200616
0.17727 -0.142389 -0.227549
0.19138 -0.152278 -0.242788
0.114229 -0.0927613 -0.147946
0.138811 -0.111866 -0.179604
0.158035 -0.126403 -0.202642
0.169584 -0.135242 -0.218271
0.0954536 -0.0774853 -0.12434
0.115614 -0.0931253 -0.149468
0.130999 -0.105117 -0.169319
0.141201 -0.112363 -0.18104
0.0584072 -0.046582 -0.075729
0.0546029 -0.0440126 -0.07197
0.0491899 -0.0398805 -0.0644207
0.0422816 -0.0347595 -0.0559894
0.0411624 -0.034353 -0.0551017
0.0480945 -0.0394195 -0.0626757
0.0530692 -0.0444024 -0.0705663
0.0565395 -0.0465056 -0.0736411
0.0633033 -0.0490131 -0.0810475
0.10541 -0.0833848 -0.134044
0.100106 -0.0768705 -0.124975
0.0891174 -0.0693862 -0.113621
0.076284 -0.0590066 -0.0968299
0.0754854 -0.0586002 -0.0964457
0.0883474 -0.0685664 -0.113599
0.0987883 -0.0772437 -0.126875
0.10482 -0.0822343 -0.135672
0.0407254 -0.0317158 -0.0516347
0.142472 -0.112191 -0.181732
0.17184 -0.135264 -0.219792
0.193569 -0.152803 -0.244438
0.206269 -0.162724 -0.261012
0.134048 -0.105036 -0.171027
0.161911 -0.126941 -0.205558
0.182113 -0.143077 -0.230394
0.194071 -0.152605 -0.244356
0.119738 -0.0934903 -0.152151
0.144356 -0.11258 -0.18378
0.162718 -0.127276 -0.204212
0.17364 -0.13587 -0.219643
0.100657 -0.0782733 -0.128181
0.120802 -0.0937276 -0.152815
0.135971 -0.106342 -0.171505
0.145377 -0.112246 -0.180995
0.0604571 -0.0466649 -0.0758983
0.0580525 -0.0445119 -0.0730384
0.0523802 -0.0403825 -0.0663552
0.0457462 -0.0352112 -0.058055
0.0447639 -0.0347733 -0.0573606
0.0515107 -0.0401287 -0.0658156
0.0570822 -0.0444623 -0.073903
0.06045 -0.0474894 -0.0773585
0.367191 -0.499332 0.611302
0 0 0
0 0 0
0 0 0
0.357169 -0.488529 0.595278
0.335314 -0.458272 0.560076
0.297646 -0.407526 0.496876
0.252849 -0.339892 0.418026
0.183448 -0.246527 0.304449
0.12771 -0.144297 0.192552
0.360182 -0.490167 0.600623
0.340417 -0.462953 0.566824
0.30403 -0.41402 0.506776
0.259486 -0.351365 0.423426
0.188725 -0.256619 0.311186
0.131053 -0.170265 0.179671
0 0 0
0 0 0
0 0 0
0 0 0
0 0 0
0 0 0
0 0 0
0 0 0
0 0 0
0.105989 -0.177918 0.193353
0.188495 -0.25884 0.314508
0.256731 -0.354443 0.429463
0.306921 -0.414647 0.508722
0.34238 -0.463758 0.568729
0.362533 -0.489832 0.600342
0 0 0
0 0 0
0 0 0
0 0 0
0 0 0
0 0 0
0 0 0
0 0 0
0 0 0
0.113406 -0.153103 0.18449
0.185321 -0.252561 0.305756
0.175236 -0.238421 0.286958
0.156749 -0.214141 0.257124
0.138664 -0.185244 0.220915
0.13712 -0.180795 0.220156
0.154456 -0.208994 0.254714
0.172687 -0.232262 0.284271
0.181802 -0.247058 0.301556
0.097865 -0.111585 0.130194
0.249454 -0.334193 0.410984
0.291562 -0.400718 0.487921
0.328404 -0.449957 0.549273
0.350812 -0.478977 0.586022
0.236784 -0.316526 0.386499
0.275285 -0.377416 0.459187
0.310989 -0.424419 0.517488
0.330796 -0.452863 0.552326
0.211356 -0.283337 0.344958
0.246175 -0.337617 0.410312
0.277329 -0.379672 0.46249
0.295771 -0.404474 0.494723
0.187456 -0.244026 0.293417
0.212899 -0.287495 0.346032
0.240583 -0.324025 0.389645
0.254617 -0.345332 0.415437
0.134154 -0.170543 0.183141
0.129699 -0.159809 0.174839
0.11959 -0.143983 0.160212
0.107048 -0.124457 0.142152
0.105675 -0.11924 0.143272
0.11838 -0.132988 0.165419
0.128513 -0.145012 0.184436
0.133093 -0.150075 0.19673
0.116749 -0.159434 0.19148
0.187543 -0.256019 0.311808
0.177361 -0.243606 0.295167
0.160236 -0.219514 0.266302
0.138791 -0.193524 0.229524
0.140042 -0.19116 0.226573
0.160668 -0.217063 0.263138
0.178531 -0.2417 0.292646
0.188551 -0.25509 0.310485
0.0857912 -0.130942 0.13163
0.255832 -0.346525 0.417518
0.299447 -0.405944 0.498935
0.33571 -0.454367 0.557433
0.35533 -0.481327 0.591004
0.241984 -0.328848 0.394291
0.283353 -0.383585 0.470379
0.317427 -0.429918 0.526379
0.336293 -0.454777 0.558512
0.216265 -0.294091 0.353461
0.254239 -0.343548 0.421303
0.284536 -0.384266 0.471495
0.302377 -0.407295 0.500764
0.185432 -0.259234 0.301201
0.215602 -0.296276 0.356829
0.241071 -0.332622 0.399799
0.254422 -0.350591 0.424201
0.111375 -0.181666 0.195892
0.108974 -0.175329 0.185601
0.101877 -0.161243 0.168497
0.0923352 -0.14422 0.146264
0.0953513 -0.141549 0.141937
0.110954 -0.157495 0.161257
0.124284 -0.171334 0.177375
0.132317 -0.177757 0.186508
0 0 0
0.359505 -0.48797 0.595112
0.336426 -0.459105 0.562378
0.301207 -0.407085 0.493447
0.246806 -0.342603 0.42439
0.183843 -0.247992 0.301526
0.101432 -0.150504 0.207395
0 0 0
0 0 0
0 0 0
0 0 0
0 0 0
0 0 0
0 0 0
0 0 0
0 0 0
0 0 0
0 0 0
0 0 0
0 0 0
0 0 0
0 0 0
0 0 0
0 0 0
0 0 0