# vtk DataFile Version 2.0
Hex test
ASCII
DATASET UNSTRUCTURED_GRID
POINTS 54720 float
0.0841924 0.930778 0.915773
0.0859708 0.927903 0.927694
0.076294 0.920879 0.915425
0.0780853 0.917718 0.928051
0.134439 0.891064 0.897383
0.136093 0.888305 0.909195
0.126612 0.881302 0.897047
0.128273 0.878265 0.909557
0.0827762 0.93414 0.903791
0.0841924 0.930778 0.915773
0.0746791 0.924232 0.902877
0.076294 0.920879 0.915425
0.133144 0.894303 0.885509
0.134439 0.891064 0.897383
0.125125 0.884529 0.884613
0.126612 0.881302 0.897047
0.0917331 0.940426 0.915645
0.0933325 0.937837 0.926376
0.0841924 0.930778 0.915773
0.0859708 0.927903 0.927694
0.141916 0.900576 0.897248
0.143404 0.898091 0.907881
0.134439 0.891064 0.897383
0.136093 0.888305 0.909195
0.0906718 0.943905 0.904438
0.0917331 0.940426 0.915645
0.0827762 0.93414 0.903791
0.0841924 0.930778 0.915773
0.140966 0.903936 0.886142
0.141916 0.900576 0.897248
0.133144 0.894303 0.885509
0.134439 0.891064 0.897383
0.0896895 0.947776 0.892555
0.0906718 0.943905 0.904438
0.0814611 0.937771 0.89148
0.0827762 0.93414 0.903791
0.1401 0.907678 0.874366
0.140966 0.903936 0.886142
0.131953 0.897806 0.87331
0.133144 0.894303 0.885509
0.0986678 0.949374 0.915354
0.0997047 0.946793 0.924404
0.0917331 0.940426 0.915645
0.0933325 0.937837 0.926376
0.148793 0.909397 0.896951
0.149739 0.906909 0.90592
0.141916 0.900576 0.897248
0.143404 0.898091 0.907881
0.0982541 0.953292 0.90504
0.0986678 0.949374 0.915354
0.0906718 0.943905 0.904438
0.0917331 0.940426 0.915645
0.148477 0.913195 0.88673
0.148793 0.909397 0.896951
0.140966 0.903936 0.886142
0.141916 0.900576 0.897248
0.0977423 0.957569 0.893604
0.0982541 0.953292 0.90504
0.0896895 0.947776 0.892555
0.0906718 0.943905 0.904438
0.148074 0.91734 0.875397
0.148477 0.913195 0.88673
0.1401 0.907678 0.874366
0.140966 0.903936 0.886142
0.104827 0.956935 0.915992
0.104072 0.953105 0.922651
0.0986678 0.949374 0.915354
0.0997047 0.946793 0.924404
0.154894 0.916856 0.897577
0.154085 0.913122 0.904177
0.148793 0.909397 0.896951
0.149739 0.906909 0.90592
0.105484 0.961946 0.906301
0.104827 0.956935 0.915992
0.0982541 0.953292 0.90504
0.0986678 0.949374 0.915354
0.155633 0.921736 0.887972
0.154894 0.916856 0.897577
0.148477 0.913195 0.88673
0.148793 0.909397 0.896951
0.105612 0.966938 0.895095
0.105484 0.961946 0.906301
0.0977423 0.957569 0.893604
0.0982541 0.953292 0.90504
0.155862 0.926587 0.876865
0.155633 0.921736 0.887972
0.148074 0.91734 0.875397
0.148477 0.913195 0.88673
0.105114 0.971506 0.883025
0.105612 0.966938 0.895095
0.096845 0.961655 0.881474
0.0977423 0.957569 0.893604
0.155479 0.931015 0.864904
0.155862 0.926587 0.876865
0.147295 0.921292 0.863376
0.148074 0.91734 0.875397
0.112545 0.969709 0.909132
0.105484 0.961946 0.906301
0.113509 0.975925 0.897554
0.105612 0.966938 0.895095
0.162607 0.929408 0.890769
0.155633 0.921736 0.887972
0.163669 0.935464 0.879294
0.155862 0.926587 0.876865
0.127145 0.969519 0.90948
0.112545 0.969709 0.909132
0.128849 0.976927 0.897218
0.113509 0.975925 0.897554
0.170077 0.937163 0.894891
0.162607 0.929408 0.890769
0.172006 0.944667 0.882561
0.163669 0.935464 0.879294
0.110549 0.962803 0.919268
0.104827 0.956935 0.915992
0.112545 0.969709 0.909132
0.105484 0.961946 0.906301
0.160537 0.922662 0.900817
0.154894 0.916856 0.897577
0.162607 0.929408 0.890769
0.155633 0.921736 0.887972
0.124062 0.960901 0.920472
0.110549 0.962803 0.919268
0.127145 0.969519 0.90948
0.112545 0.969709 0.909132
0.166722 0.92836 0.905995
0.160537 0.922662 0.900817
0.170077 0.937163 0.894891
0.162607 0.929408 0.890769
0.107361 0.955288 0.927293
0.104072 0.953105 0.922651
0.110549 0.962803 0.919268
0.104827 0.956935 0.915992
0.157302 0.915304 0.908773
0.154085 0.913122 0.904177
0.160537 0.922662 0.900817
0.154894 0.916856 0.897577
0.119634 0.951259 0.929864
0.107361 0.955288 0.927293
0.124062 0.960901 0.920472
0.110549 0.962803 0.919268
0.162025 0.918474 0.9156
0.157302 0.915304 0.908773
0.166722 0.92836 0.905995
0.160537 0.922662 0.900817
0.102362 0.94654 0.932837
0.107361 0.955288 0.927293
0.113881 0.940723 0.93741
0.119634 0.951259 0.929864
0.152296 0.906713 0.914274
0.157302 0.915304 0.908773
0.156101 0.907748 0.923469
0.162025 0.918474 0.9156
0.0958749 0.936546 0.936877
0.102362 0.94654 0.932837
0.106968 0.929517 0.943072
0.113881 0.940723 0.93741
0.145828 0.896885 0.918285
0.152296 0.906713 0.914274
0.149095 0.896448 0.92941
0.156101 0.907748 0.923469
0.0883625 0.925854 0.939512
0.0958749 0.936546 0.936877
0.099108 0.917954 0.946753
0.106968 0.929517 0.943072
0.138357 0.886359 0.920904
0.145828 0.896885 0.918285
0.141181 0.884851 0.933275
0.149095 0.896448 0.92941
0.0802067 0.914991 0.940642
0.0883625 0.925854 0.939512
0.0905278 0.90636 0.948366
0.099108 0.917954 0.946753
0.130261 0.875655 0.922033
0.138357 0.886359 0.920904
0.132554 0.873243 0.934969
0.141181 0.884851 0.933275
0.0997047 0.946793 0.924404
0.104072 0.953105 0.922651
0.102362 0.94654 0.932837
0.107361 0.955288 0.927293
0.149739 0.906909 0.90592
0.154085 0.913122 0.904177
0.152296 0.906713 0.914274
0.157302 0.915304 0.908773
0.0933325 0.937837 0.926376
0.0997047 0.946793 0.924404
0.0958749 0.936546 0.936877
0.102362 0.94654 0.932837
0.143404 0.898091 0.907881
0.149739 0.906909 0.90592
0.145828 0.896885 0.918285
0.152296 0.906713 0.914274
0.0859708 0.927903 0.927694
0.0933325 0.937837 0.926376
0.0883625 0.925854 0.939512
0.0958749 0.936546 0.936877
0.136093 0.888305 0.909195
0.143404 0.898091 0.907881
0.138357 0.886359 0.920904
0.145828 0.896885 0.918285
0.0780853 0.917718 0.928051
0.0859708 0.927903 0.927694
0.0802067 0.914991 0.940642
0.0883625 0.925854 0.939512
0.128273 0.878265 0.909557
0.136093 0.888305 0.909195
0.130261 0.875655 0.922033
0.138357 0.886359 0.920904
0.126612 0.881302 0.897047
0.128273 0.878265 0.909557
0.118584 0.871512 0.896159
0.120181 0.868319 0.908854
0.177364 0.841178 0.879068
0.178897 0.838265 0.891447
0.169424 0.831531 0.878198
0.170891 0.828466 0.89076
0.134439 0.891064 0.897383
0.136093 0.888305 0.909195
0.126612 0.881302 0.897047
0.128273 0.878265 0.909557
0.185111 0.850793 0.879392
0.186643 0.84815 0.891081
0.177364 0.841178 0.879068
0.178897 0.838265 0.891447
0.133144 0.894303 0.885509
0.134439 0.891064 0.897383
0.125125 0.884529 0.884613
0.126612 0.881302 0.897047
0.183935 0.853909 0.867642
0.185111 0.850793 0.879392
0.176004 0.844277 0.866763
0.177364 0.841178 0.879068
0.131953 0.897806 0.87331
0.133144 0.894303 0.885509
0.1237 0.887874 0.872076
0.125125 0.884529 0.884613
0.182865 0.857282 0.85557
0.183935 0.853909 0.867642
0.174704 0.847493 0.854357
0.176004 0.844277 0.866763
0.141916 0.900576 0.897248
0.143404 0.898091 0.907881
0.134439 0.891064 0.897383
0.136093 0.888305 0.909195
0.192515 0.86016 0.87925
0.193893 0.85778 0.889772
0.185111 0.850793 0.879392
0.186643 0.84815 0.891081
0.140966 0.903936 0.886142
0.141916 0.900576 0.897248
0.133144 0.894303 0.885509
0.134439 0.891064 0.897383
0.191674 0.863399 0.86826
0.192515 0.86016 0.87925
0.183935 0.853909 0.867642
0.185111 0.850793 0.879392
0.1401 0.907678 0.874366
0.140966 0.903936 0.886142
0.131953 0.897806 0.87331
0.133144 0.894303 0.885509
0.190922 0.867011 0.856606
0.191674 0.863399 0.86826
0.182865 0.857282 0.85557
0.183935 0.853909 0.867642
0.13902 0.911356 0.862084
0.1401 0.907678 0.874366
0.130653 0.901306 0.860783
0.131953 0.897806 0.87331
0.189962 0.870556 0.844452
0.190922 0.867011 0.856606
0.181689 0.860651 0.843174
0.182865 0.857282 0.85557
0.148793 0.909397 0.896951
0.149739 0.906909 0.90592
0.141916 0.900576 0.897248
0.143404 0.898091 0.907881
0.199327 0.868845 0.87895
0.200183 0.866452 0.887825
0.192515 0.86016 0.87925
0.193893 0.85778 0.889772
0.148477 0.913195 0.88673
0.148793 0.909397 0.896951
0.140966 0.903936 0.886142
0.141916 0.900576 0.897248
0.199106 0.872522 0.868834
0.199327 0.868845 0.87895
0.191674 0.863399 0.86826
0.192515 0.86016 0.87925
0.148074 0.91734 0.875397
0.148477 0.913195 0.88673
0.1401 0.907678 0.874366
0.140966 0.903936 0.886142
0.198808 0.876533 0.857618
0.199106 0.872522 0.868834
0.190922 0.867011 0.856606
0.191674 0.863399 0.86826
0.154894 0.916856 0.897577
0.154085 0.913122 0.904177
0.148793 0.909397 0.896951
0.149739 0.906909 0.90592
0.205362 0.876195 0.879563
0.204502 0.872559 0.886096
0.199327 0.868845 0.87895
0.200183 0.866452 0.887825
0.155633 0.921736 0.887972
0.154894 0.916856 0.897577
0.148477 0.913195 0.88673
0.148793 0.909397 0.896951
0.206179 0.88094 0.870056
0.205362 0.876195 0.879563
0.199106 0.872522 0.868834
0.199327 0.868845 0.87895
0.155862 0.926587 0.876865
0.155633 0.921736 0.887972
0.148074 0.91734 0.875397
0.148477 0.913195 0.88673
0.206505 0.885648 0.859063
0.206179 0.88094 0.870056
0.198808 0.876533 0.857618
0.199106 0.872522 0.868834
0.155479 0.931015 0.864904
0.155862 0.926587 0.876865
0.147295 0.921292 0.863376
0.148074 0.91734 0.875397
0.206233 0.889934 0.847226
0.206505 0.885648 0.859063
0.198144 0.880349 0.845722
0.198808 0.876533 0.857618
0.163669 0.935464 0.879294
0.155862 0.926587 0.876865
0.163767 0.940678 0.8669
0.155479 0.931015 0.864904
0.214214 0.894405 0.861459
0.206505 0.885648 0.859063
0.214421 0.899463 0.849192
0.206233 0.889934 0.847226
0.172006 0.944667 0.882561
0.163669 0.935464 0.879294
0.172463 0.950687 0.86931
0.163767 0.940678 0.8669
0.222439 0.90349 0.864684
0.214214 0.894405 0.861459
0.22301 0.909335 0.851568
0.214421 0.899463 0.849192
0.162607 0.929408 0.890769
0.155633 0.921736 0.887972
0.163669 0.935464 0.879294
0.155862 0.926587 0.876865
0.21306 0.888514 0.872817
0.206179 0.88094 0.870056
0.214214 0.894405 0.861459
0.206505 0.885648 0.859063
0.170077 0.937163 0.894891
0.162607 0.929408 0.890769
0.172006 0.944667 0.882561
0.163669 0.935464 0.879294
0.220419 0.896177 0.876888
0.21306 0.888514 0.872817
0.222439 0.90349 0.864684
0.214214 0.894405 0.861459
0.160537 0.922662 0.900817
0.154894 0.916856 0.897577
0.162607 0.929408 0.890769
0.155633 0.921736 0.887972
0.21092 0.881933 0.882764
0.205362 0.876195 0.879563
0.21306 0.888514 0.872817
0.206179 0.88094 0.870056
[...]
POINT_DATA 54720
VECTORS VelocityField float
0.463702 -0.363465 -0.164051
0.339578 -0.266172 -0.120138
0.494211 -0.387379 -0.174845
0.360134 -0.282285 -0.12741
0.363821 -0.27918 -0.116625
0.261162 -0.200815 -0.0835089
0.381762 -0.30386 -0.1342
0.277044 -0.213653 -0.0932561
0.559661 -0.438681 -0.198
0.463702 -0.363465 -0.164051
0.597775 -0.468556 -0.211484
0.494211 -0.387379 -0.174845
0.445969 -0.345101 -0.142766
0.363821 -0.27918 -0.116625
0.468258 -0.375572 -0.164097
0.381762 -0.30386 -0.1342
0.413144 -0.323836 -0.146164
0.305322 -0.239322 -0.108019
0.463702 -0.363465 -0.164051
0.339578 -0.266172 -0.120138
0.328667 -0.239513 -0.101449
0.235721 -0.175802 -0.074197
0.363821 -0.27918 -0.116625
0.261162 -0.200815 -0.0835089
0.497054 -0.389607 -0.175851
0.413144 -0.323836 -0.146164
0.559661 -0.438681 -0.198
0.463702 -0.363465 -0.164051
0.398364 -0.296751 -0.127866
0.328667 -0.239513 -0.101449
0.445969 -0.345101 -0.142766
0.363821 -0.27918 -0.116625
0.558763 -0.437977 -0.197682
0.497054 -0.389607 -0.175851
0.62926 -0.493235 -0.222623
0.559661 -0.438681 -0.198
0.450677 -0.345515 -0.147161
0.398364 -0.296751 -0.127866
0.506803 -0.40073 -0.163268
0.445969 -0.345101 -0.142766
0.345763 -0.271021 -0.122326
0.262777 -0.205973 -0.0929668
0.413144 -0.323836 -0.146164
0.305322 -0.239322 -0.108019
0.273283 -0.193732 -0.0898422
0.203559 -0.144931 -0.0654399
0.328667 -0.239513 -0.101449
0.235721 -0.175802 -0.074197
0.411771 -0.32276 -0.145679
0.345763 -0.271021 -0.122326
0.497054 -0.389607 -0.175851
0.413144 -0.323836 -0.146164
0.327929 -0.238252 -0.111421
0.273283 -0.193732 -0.0898422
0.398364 -0.296751 -0.127866
0.328667 -0.239513 -0.101449
0.461971 -0.362108 -0.163439
0.411771 -0.32276 -0.145679
0.558763 -0.437977 -0.197682
0.497054 -0.389607 -0.175851
0.369456 -0.276428 -0.130841
0.327929 -0.238252 -0.111421
0.450677 -0.345515 -0.147161
0.398364 -0.296751 -0.127866
0.261459 -0.20494 -0.0925004
0.225044 -0.176397 -0.0796174
0.345763 -0.271021 -0.122326
0.262777 -0.205973 -0.0929668
0.203148 -0.14212 -0.0712232
0.17176 -0.12033 -0.0581751
0.273283 -0.193732 -0.0898422
0.203559 -0.144931 -0.0654399
0.303953 -0.238249 -0.107534
0.261459 -0.20494 -0.0925004
0.411771 -0.32276 -0.145679
0.345763 -0.271021 -0.122326
0.238068 -0.169771 -0.0877331
0.203148 -0.14212 -0.0712232
0.327929 -0.238252 -0.111421
0.273283 -0.193732 -0.0898422
0.339485 -0.2661 -0.120105
0.303953 -0.238249 -0.107534
0.461971 -0.362108 -0.163439
0.411771 -0.32276 -0.145679
0.268912 -0.194951 -0.100138
0.238068 -0.169771 -0.0877331
0.369456 -0.276428 -0.130841
0.327929 -0.238252 -0.111421
0.361024 -0.282983 -0.127725
0.339485 -0.2661 -0.120105
0.493002 -0.386431 -0.174417
0.461971 -0.362108 -0.163439
0.285806 -0.209331 -0.110374
0.268912 -0.194951 -0.100138
0.394007 -0.299294 -0.143896
0.369456 -0.276428 -0.130841
0.169036 -0.132496 -0.0598023
0.303953 -0.238249 -0.107534
0.187456 -0.146934 -0.066319
0.339485 -0.2661 -0.120105
0.134599 -0.0895129 -0.0516337
0.238068 -0.169771 -0.0877331
0.153398 -0.0993203 -0.06057
0.268912 -0.194951 -0.100138
0.0294292 -0.0230675 -0.0104116
0.169036 -0.132496 -0.0598023
0.032536 -0.0255028 -0.0115107
0.187456 -0.146934 -0.066319
0 0 0
0.134599 -0.0895129 -0.0516337
0 0 0
0.153398 -0.0993203 -0.06057
0.148704 -0.116559 -0.0526091
0.261459 -0.20494 -0.0925004
0.169036 -0.132496 -0.0598023
0.303953 -0.238249 -0.107534
0.116845 -0.0766315 -0.0432574
0.203148 -0.14212 -0.0712232
0.134599 -0.0895129 -0.0516337
0.238068 -0.169771 -0.0877331
0.0260922 -0.0204519 -0.00923102
0.148704 -0.116559 -0.0526091
0.0294292 -0.0230675 -0.0104116
0.169036 -0.132496 -0.0598023
0 0 0
0.116845 -0.0766315 -0.0432574
0 0 0
0.134599 -0.0895129 -0.0516337
0.137629 -0.107878 -0.0486912
0.225044 -0.176397 -0.0796174
0.148704 -0.116559 -0.0526091
0.261459 -0.20494 -0.0925004
0.105946 -0.0730938 -0.0349476
0.17176 -0.12033 -0.0581751
0.116845 -0.0766315 -0.0432574
0.203148 -0.14212 -0.0712232
0.0244218 -0.0191426 -0.00864005
0.137629 -0.107878 -0.0486912
0.0260922 -0.0204519 -0.00923102
0.148704 -0.116559 -0.0526091
0 0 0
0.105946 -0.0730938 -0.0349476
0 0 0
0.116845 -0.0766315 -0.0432574
0.14988 -0.117481 -0.0530256
0.137629 -0.107878 -0.0486912
0.026318 -0.0206289 -0.00931094
0.0244218 -0.0191426 -0.00864005
0.117157 -0.0795859 -0.037825
0.105946 -0.0730938 -0.0349476
0 0 0
0 0 0
0.16983 -0.133119 -0.0600837
0.14988 -0.117481 -0.0530256
0.0295692 -0.0231774 -0.0104612
0.026318 -0.0206289 -0.00931094
0.1331 -0.0942459 -0.0386087
0.117157 -0.0795859 -0.037825
0 0 0
0 0 0
0.186855 -0.146463 -0.0661064
0.16983 -0.133119 -0.0600837
0.032397 -0.0253938 -0.0114616
0.0295692 -0.0231774 -0.0104612
0.145118 -0.107575 -0.042833
0.1331 -0.0942459 -0.0386087
0 0 0
0 0 0
0.19611 -0.153717 -0.0693808
0.186855 -0.146463 -0.0661064
0.0338375 -0.026523 -0.0119712
0.032397 -0.0253938 -0.0114616
0.152676 -0.113752 -0.0448903
0.145118 -0.107575 -0.042833
0 0 0
0 0 0
0.262777 -0.205973 -0.0929668
0.225044 -0.176397 -0.0796174
0.14988 -0.117481 -0.0530256
0.137629 -0.107878 -0.0486912
0.203559 -0.144931 -0.0654399
0.17176 -0.12033 -0.0581751
0.117157 -0.0795859 -0.037825
0.105946 -0.0730938 -0.0349476
0.305322 -0.239322 -0.108019
0.262777 -0.205973 -0.0929668
0.16983 -0.133119 -0.0600837
0.14988 -0.117481 -0.0530256
0.235721 -0.175802 -0.074197
0.203559 -0.144931 -0.0654399
0.1331 -0.0942459 -0.0386087
0.117157 -0.0795859 -0.037825
0.339578 -0.266172 -0.120138
0.305322 -0.239322 -0.108019
0.186855 -0.146463 -0.0661064
0.16983 -0.133119 -0.0600837
0.261162 -0.200815 -0.0835089
0.235721 -0.175802 -0.074197
0.145118 -0.107575 -0.042833
0.1331 -0.0942459 -0.0386087
0.360134 -0.282285 -0.12741
0.339578 -0.266172 -0.120138
0.19611 -0.153717 -0.0693808
0.186855 -0.146463 -0.0661064
0.277044 -0.213653 -0.0932561
0.261162 -0.200815 -0.0835089
0.152676 -0.113752 -0.0448903
0.145118 -0.107575 -0.042833
0.381762 -0.30386 -0.1342
0.277044 -0.213653 -0.0932561
0.384612 -0.311948 -0.143104
0.278242 -0.219415 -0.0983312
0.393509 -0.312814 -0.141481
0.289165 -0.227909 -0.105313
0.400646 -0.317716 -0.145379
0.29379 -0.231037 -0.108351
0.363821 -0.27918 -0.116625
0.261162 -0.200815 -0.0835089
0.381762 -0.30386 -0.1342
0.277044 -0.213653 -0.0932561
0.369656 -0.293508 -0.130526
0.271725 -0.21561 -0.0981723
0.393509 -0.312814 -0.141481
0.289165 -0.227909 -0.105313
0.445969 -0.345101 -0.142766
0.363821 -0.27918 -0.116625
0.468258 -0.375572 -0.164097
0.381762 -0.30386 -0.1342
0.445234 -0.354805 -0.153999
0.369656 -0.293508 -0.130526
0.474542 -0.378529 -0.167047
0.393509 -0.312814 -0.141481
0.506803 -0.40073 -0.163268
0.445969 -0.345101 -0.142766
0.532817 -0.436064 -0.182355
0.468258 -0.375572 -0.164097
0.500315 -0.401559 -0.170301
0.445234 -0.354805 -0.153999
0.533275 -0.428161 -0.183433
0.474542 -0.378529 -0.167047
0.328667 -0.239513 -0.101449
0.235721 -0.175802 -0.074197
0.363821 -0.27918 -0.116625
0.261162 -0.200815 -0.0835089
0.329634 -0.26078 -0.11575
0.243469 -0.19347 -0.0878167
0.369656 -0.293508 -0.130526
0.271725 -0.21561 -0.0981723
0.398364 -0.296751 -0.127866
0.328667 -0.239513 -0.101449
0.445969 -0.345101 -0.142766
0.363821 -0.27918 -0.116625
0.395442 -0.315112 -0.137395
0.329634 -0.26078 -0.11575
0.445234 -0.354805 -0.153999
0.369656 -0.293508 -0.130526
0.450677 -0.345515 -0.147161
0.398364 -0.296751 -0.127866
0.506803 -0.40073 -0.163268
0.445969 -0.345101 -0.142766
0.444013 -0.357028 -0.152397
0.395442 -0.315112 -0.137395
0.500315 -0.401559 -0.170301
0.445234 -0.354805 -0.153999
0.480446 -0.37405 -0.165485
0.450677 -0.345515 -0.147161
0.5416 -0.435004 -0.17976
0.506803 -0.40073 -0.163268
0.473186 -0.38255 -0.162151
0.444013 -0.357028 -0.152397
0.533241 -0.430291 -0.180032
0.500315 -0.401559 -0.170301
0.273283 -0.193732 -0.0898422
0.203559 -0.144931 -0.0654399
0.328667 -0.239513 -0.101449
0.235721 -0.175802 -0.074197
0.274856 -0.218344 -0.0981949
0.208455 -0.16549 -0.0755589
0.329634 -0.26078 -0.11575
0.243469 -0.19347 -0.0878167
0.327929 -0.238252 -0.111421
0.273283 -0.193732 -0.0898422
0.398364 -0.296751 -0.127866
0.328667 -0.239513 -0.101449
0.327065 -0.262018 -0.115775
0.274856 -0.218344 -0.0981949
0.395442 -0.315112 -0.137395
0.329634 -0.26078 -0.11575
0.369456 -0.276428 -0.130841
0.327929 -0.238252 -0.111421
0.450677 -0.345515 -0.147161
0.398364 -0.296751 -0.127866
0.366653 -0.296473 -0.129191
0.327065 -0.262018 -0.115775
0.444013 -0.357028 -0.152397
0.395442 -0.315112 -0.137395
0.203148 -0.14212 -0.0712232
0.17176 -0.12033 -0.0581751
0.273283 -0.193732 -0.0898422
0.203559 -0.144931 -0.0654399
0.206579 -0.165567 -0.0753307
0.17669 -0.141072 -0.0647428
0.274856 -0.218344 -0.0981949
0.208455 -0.16549 -0.0755589
0.238068 -0.169771 -0.0877331
0.203148 -0.14212 -0.0712232
0.327929 -0.238252 -0.111421
0.273283 -0.193732 -0.0898422
0.240793 -0.194594 -0.0875934
0.206579 -0.165567 -0.0753307
0.327065 -0.262018 -0.115775
0.274856 -0.218344 -0.0981949
0.268912 -0.194951 -0.100138
0.238068 -0.169771 -0.0877331
0.369456 -0.276428 -0.130841
0.327929 -0.238252 -0.111421
0.269604 -0.219243 -0.0969937
0.240793 -0.194594 -0.0875934
0.366653 -0.296473 -0.129191
0.327065 -0.262018 -0.115775
0.285806 -0.209331 -0.110374
0.268912 -0.194951 -0.100138
0.394007 -0.299294 -0.143896
0.369456 -0.276428 -0.130841
0.286466 -0.234061 -0.102674
0.269604 -0.219243 -0.0969937
0.39064 -0.317569 -0.136856
0.366653 -0.296473 -0.129191
0.153398 -0.0993203 -0.06057
0.268912 -0.194951 -0.100138
0.159375 -0.107999 -0.0666462
0.285806 -0.209331 -0.110374
0.152376 -0.122511 -0.0562206
0.269604 -0.219243 -0.0969937
0.160043 -0.130357 -0.0591918
0.286466 -0.234061 -0.102674
0 0 0
0.153398 -0.0993203 -0.06057
0 0 0
0.159375 -0.107999 -0.0666462
0 0 0
0.152376 -0.122511 -0.0562206
0 0 0
0.160043 -0.130357 -0.0591918
0.134599 -0.0895129 -0.0516337
0.238068 -0.169771 -0.0877331
0.153398 -0.0993203 -0.06057
0.268912 -0.194951 -0.100138
0.136278 -0.109815 -0.0505522
0.240793 -0.194594 -0.0875934
0.152376 -0.122511 -0.0562206
0.269604 -0.219243 -0.0969937
0 0 0
0.134599 -0.0895129 -0.0516337
0 0 0
0.153398 -0.0993203 -0.06057
0 0 0
0.136278 -0.109815 -0.0505522
0 0 0
0.152376 -0.122511 -0.0562206
0.116845 -0.0766315 -0.0432574
0.203148 -0.14212 -0.0712232
0.134599 -0.0895129 -0.0516337
0.238068 -0.169771 -0.0877331
0.119121 -0.0951347 -0.0444259
0.206579 -0.165567 -0.0753307
0.136278 -0.109815 -0.0505522
0.240793 -0.194594 -0.0875934
0 0 0
0.116845 -0.0766315 -0.0432574
0 0 0
0.134599 -0.0895129 -0.0516337
0 0 0
0.119121 -0.0951347 -0.0444259
0 0 0
0.136278 -0.109815 -0.0505522
0.105946 -0.0730938 -0.0349476
0.17176 -0.12033 -0.0581751
0.116845 -0.0766315 -0.0432574
0.203148 -0.14212 -0.0712232
0.10963 -0.0876102 -0.0403842
0.17669 -0.141072 -0.0647428
0.119121 -0.0951347 -0.0444259
0.206579 -0.165567 -0.0753307
0 0 0
0.105946 -0.0730938 -0.0349476
0 0 0
0.116845 -0.0766315 -0.0432574
0 0 0
0.10963 -0.0876102 -0.0403842
0 0 0
0.119121 -0.0951347 -0.0444259
0.117157 -0.0795859 -0.037825
0.105946 -0.0730938 -0.0349476
0 0 0
0 0 0
0.120913 -0.0951296 -0.0446757
0.10963 -0.0876102 -0.0403842
0 0 0
0 0 0
0.1331 -0.0942459 -0.0386087
0.117157 -0.0795859 -0.037825
0 0 0
0 0 0
0.138418 -0.108729 -0.0501713
0.120913 -0.0951296 -0.0446757
0 0 0
0 0 0
0.145118 -0.107575 -0.042833
0.1331 -0.0942459 -0.0386087
0 0 0
0 0 0
0.152939 -0.120341 -0.0556431
0.138418 -0.108729 -0.0501713
0 0 0
0 0 0
0.152676 -0.113752 -0.0448903
0.145118 -0.107575 -0.042833
0 0 0
0 0 0
0.161402 -0.12608 -0.0585749
0.152939 -0.120341 -0.0556431
0 0 0
0 0 0
0.152439 -0.113274 -0.0498583
0.152676 -0.113752 -0.0448903
0 0 0
0 0 0
0.162511 -0.126008 -0.0624631
0.161402 -0.12608 -0.0585749
0 0 0
0 0 0
0.203559 -0.144931 -0.0654399
0.17176 -0.12033 -0.0581751
0.117157 -0.0795859 -0.037825
0.105946 -0.0730938 -0.0349476
0.208455 -0.16549 -0.0755589
0.17669 -0.141072 -0.0647428
0.120913 -0.0951296 -0.0446757
0.10963 -0.0876102 -0.0403842
0.235721 -0.175802 -0.074197
0.203559 -0.144931 -0.0654399
0.1331 -0.0942459 -0.0386087
0.117157 -0.0795859 -0.037825
0.243469 -0.19347 -0.0878167
0.208455 -0.16549 -0.0755589
0.138418 -0.108729 -0.0501713
0.120913 -0.0951296 -0.0446757
0.261162 -0.200815 -0.0835089
0.235721 -0.175802 -0.074197
0.145118 -0.107575 -0.042833
0.1331 -0.0942459 -0.0386087
0.271725 -0.21561 -0.0981723
0.243469 -0.19347 -0.0878167
0.152939 -0.120341 -0.0556431
0.138418 -0.108729 -0.0501713
0.277044 -0.213653 -0.0932561
0.261162 -0.200815 -0.0835089
0.152676 -0.113752 -0.0448903
0.145118 -0.107575 -0.042833
0.289165 -0.227909 -0.105313
0.271725 -0.21561 -0.0981723
0.161402 -0.12608 -0.0585749
0.152939 -0.120341 -0.0556431
0.278242 -0.219415 -0.0983312
0.277044 -0.213653 -0.0932561
0.152439 -0.113274 -0.0498583
0.152676 -0.113752 -0.0448903
0.29379 -0.231037 -0.108351
0.289165 -0.227909 -0.105313
0.162511 -0.126008 -0.0624631
0.161402 -0.12608 -0.0585749
0.393509 -0.312814 -0.141481
0.289165 -0.227909 -0.105313
0.400646 -0.317716 -0.145379
0.29379 -0.231037 -0.108351
0.393679 -0.313855 -0.128548
0.28687 -0.228554 -0.0938849
0.401539 -0.318742 -0.131003
0.2918 -0.231577 -0.0955778
0.474542 -0.378529 -0.167047
0.393509 -0.312814 -0.141481
0.483526 -0.386387 -0.172224
0.400646 -0.317716 -0.145379
0.476042 -0.379635 -0.154867
0.393679 -0.313855 -0.128548
0.486817 -0.386669 -0.157919
0.401539 -0.318742 -0.131003
0.533275 -0.428161 -0.183433
0.474542 -0.378529 -0.167047
0.54373 -0.43757 -0.188832
0.483526 -0.386387 -0.172224
0.535402 -0.42723 -0.172997
0.476042 -0.379635 -0.154867
0.547896 -0.435358 -0.176707
0.486817 -0.386669 -0.157919
0.369656 -0.293508 -0.130526
0.271725 -0.21561 -0.0981723
0.393509 -0.312814 -0.141481
0.289165 -0.227909 -0.105313
0.368185 -0.294678 -0.12043
0.2694 -0.215594 -0.0882355
0.393679 -0.313855 -0.128548
0.28687 -0.228554 -0.0938849
0.445234 -0.354805 -0.153999
0.369656 -0.293508 -0.130526
0.474542 -0.378529 -0.167047
0.393509 -0.312814 -0.141481
0.444485 -0.355868 -0.144828
0.368185 -0.294678 -0.12043
0.476042 -0.379635 -0.154867
0.393679 -0.313855 -0.128548
0.500315 -0.401559 -0.170301
0.445234 -0.354805 -0.153999
0.533275 -0.428161 -0.183433
0.474542 -0.378529 -0.167047
0.500074 -0.400524 -0.161984
0.444485 -0.355868 -0.144828
0.535402 -0.42723 -0.172997
0.476042 -0.379635 -0.154867
0.533241 -0.430291 -0.180032
0.500315 -0.401559 -0.170301
0.568394 -0.457504 -0.193121
0.533275 -0.428161 -0.183433
0.533781 -0.427788 -0.171731
0.500074 -0.400524 -0.161984
0.57109 -0.45588 -0.183211
0.535402 -0.42723 -0.172997
0.329634 -0.26078 -0.11575
0.243469 -0.19347 -0.0878167
0.369656 -0.293508 -0.130526
0.271725 -0.21561 -0.0981723
0.326458 -0.262123 -0.106863
0.240665 -0.193218 -0.078839
0.368185 -0.294678 -0.12043
0.2694 -0.215594 -0.0882355
0.395442 -0.315112 -0.137395
0.329634 -0.26078 -0.11575
0.445234 -0.354805 -0.153999
0.369656 -0.293508 -0.130526
0.393399 -0.315956 -0.128422
0.326458 -0.262123 -0.106863
0.444485 -0.355868 -0.144828
0.368185 -0.294678 -0.12043
0.444013 -0.357028 -0.152397
0.395442 -0.315112 -0.137395
0.500315 -0.401559 -0.170301
0.445234 -0.354805 -0.153999
0.442824 -0.355822 -0.143708
0.393399 -0.315956 -0.128422
0.500074 -0.400524 -0.161984
0.444485 -0.355868 -0.144828
0.473186 -0.38255 -0.162151
0.444013 -0.357028 -0.152397
0.533241 -0.430291 -0.180032
0.500315 -0.401559 -0.170301
0.472901 -0.380227 -0.152514
0.442824 -0.355822 -0.143708
0.533781 -0.427788 -0.171731
0.500074 -0.400524 -0.161984
0.274856 -0.218344 -0.0981949
0.208455 -0.16549 -0.0755589
0.329634 -0.26078 -0.11575
0.243469 -0.19347 -0.0878167
0.271554 -0.218464 -0.0889628
0.205006 -0.164913 -0.0671318
0.326458 -0.262123 -0.106863
0.240665 -0.193218 -0.078839
0.327065 -0.262018 -0.115775
0.274856 -0.218344 -0.0981949
0.395442 -0.315112 -0.137395
0.329634 -0.26078 -0.11575
0.324769 -0.261337 -0.106103
0.271554 -0.218464 -0.0889628
0.393399 -0.315956 -0.128422
0.326458 -0.262123 -0.106863
0.366653 -0.296473 -0.129191
0.327065 -0.262018 -0.115775
0.444013 -0.357028 -0.152397
0.395442 -0.315112 -0.137395
0.365136 -0.294006 -0.118661
0.324769 -0.261337 -0.106103
0.442824 -0.355822 -0.143708
0.393399 -0.315956 -0.128422
0.39064 -0.317569 -0.136856
0.366653 -0.296473 -0.129191
0.473186 -0.38255 -0.162151
0.444013 -0.357028 -0.152397
0.38975 -0.314047 -0.125842
0.365136 -0.294006 -0.118661
0.472901 -0.380227 -0.152514
0.442824 -0.355822 -0.143708
0.206579 -0.165567 -0.0753307
0.17669 -0.141072 -0.0647428
0.274856 -0.218344 -0.0981949
0.208455 -0.16549 -0.0755589
0.20367 -0.163881 -0.0666869
0.173486 -0.139578 -0.0568015
0.271554 -0.218464 -0.0889628
0.205006 -0.164913 -0.0671318
0.240793 -0.194594 -0.0875934
0.206579 -0.165567 -0.0753307
0.327065 -0.262018 -0.115775
0.274856 -0.218344 -0.0981949
0.238657 -0.192104 -0.0779695
0.20367 -0.163881 -0.0666869
0.324769 -0.261337 -0.106103
0.271554 -0.218464 -0.0889628
0.269604 -0.219243 -0.0969937
0.240793 -0.194594 -0.0875934
0.366653 -0.296473 -0.129191
0.327065 -0.262018 -0.115775
0.267475 -0.215531 -0.08696
0.238657 -0.192104 -0.0779695
0.365136 -0.294006 -0.118661
0.324769 -0.261337 -0.106103
0.286466 -0.234061 -0.102674
0.269604 -0.219243 -0.0969937
0.39064 -0.317569 -0.136856
0.366653 -0.296473 -0.129191
0.284844 -0.22956 -0.0920765
0.267475 -0.215531 -0.08696
0.38975 -0.314047 -0.125842
0.365136 -0.294006 -0.118661
0.152376 -0.122511 -0.0562206
0.269604 -0.219243 -0.0969937
0.160043 -0.130357 -0.0591918
0.286466 -0.234061 -0.102674
0.149017 -0.11999 -0.0484477
0.267475 -0.215531 -0.08696
0.15727 -0.126711 -0.0508402
0.284844 -0.22956 -0.0920765
0 0 0
0.152376 -0.122511 -0.0562206
0 0 0
0.160043 -0.130357 -0.0591918
0 0 0
0.149017 -0.11999 -0.0484477
0 0 0
0.15727 -0.126711 -0.0508402
0.136278 -0.109815 -0.0505522
0.240793 -0.194594 -0.0875934
0.152376 -0.122511 -0.0562206
0.269604 -0.219243 -0.0969937
0.133701 -0.107572 -0.0436829
0.238657 -0.192104 -0.0779695
0.149017 -0.11999 -0.0484477
0.267475 -0.215531 -0.08696
0 0 0
0.136278 -0.109815 -0.0505522
0 0 0
0.152376 -0.122511 -0.0562206
0 0 0
0.133701 -0.107572 -0.0436829
0 0 0
0.149017 -0.11999 -0.0484477
0.119121 -0.0951347 -0.0444259
0.206579 -0.165567 -0.0753307
0.136278 -0.109815 -0.0505522
0.240793 -0.194594 -0.0875934
0.11653 -0.0936981 -0.0381433
0.20367 -0.163881 -0.0666869
0.133701 -0.107572 -0.0436829
0.238657 -0.192104 -0.0779695
0 0 0
0.119121 -0.0951347 -0.0444259
0 0 0
0.136278 -0.109815 -0.0505522
0 0 0
0.11653 -0.0936981 -0.0381433
0 0 0
0.133701 -0.107572 -0.0436829
0.10963 -0.0876102 -0.0403842
0.17669 -0.141072 -0.0647428
0.119121 -0.0951347 -0.0444259
0.206579 -0.165567 -0.0753307
0.107071 -0.0861503 -0.0350368
0.173486 -0.139578 -0.0568015
0.11653 -0.0936981 -0.0381433
0.20367 -0.163881 -0.0666869
0 0 0
0.10963 -0.0876102 -0.0403842
0 0 0
0.119121 -0.0951347 -0.0444259
0 0 0
0.107071 -0.0861503 -0.0350368
0 0 0
0.11653 -0.0936981 -0.0381433
0.120913 -0.0951296 -0.0446757
0.10963 -0.0876102 -0.0403842
0 0 0
0 0 0
0.117746 -0.0947255 -0.0385203
0.107071 -0.0861503 -0.0350368
0 0 0
0 0 0
0.138418 -0.108729 -0.0501713
0.120913 -0.0951296 -0.0446757
0 0 0
0 0 0
0.135012 -0.10842 -0.0442342
0.117746 -0.0947255 -0.0385203
0 0 0
0 0 0
0.152939 -0.120341 -0.0556431
0.138418 -0.108729 -0.0501713
0 0 0
0 0 0
0.149683 -0.119743 -0.0490399
0.135012 -0.10842 -0.0442342
0 0 0
0 0 0
0.161402 -0.12608 -0.0585749
0.152939 -0.120341 -0.0556431
0 0 0
0 0 0
0.157732 -0.125719 -0.0516194
0.149683 -0.119743 -0.0490399
0 0 0
0 0 0
0.162511 -0.126008 -0.0624631
0.161402 -0.12608 -0.0585749
0 0 0
0 0 0
0.158984 -0.126027 -0.0527403
0.157732 -0.125719 -0.0516194
0 0 0
0 0 0
0.208455 -0.16549 -0.0755589
0.17669 -0.141072 -0.0647428
0.120913 -0.0951296 -0.0446757
0.10963 -0.0876102 -0.0403842
0.205006 -0.164913 -0.0671318
0.173486 -0.139578 -0.0568015
0.117746 -0.0947255 -0.0385203
0.107071 -0.0861503 -0.0350368
0.243469 -0.19347 -0.0878167
0.208455 -0.16549 -0.0755589
0.138418 -0.108729 -0.0501713
0.120913 -0.0951296 -0.0446757
0.240665 -0.193218 -0.078839
0.205006 -0.164913 -0.0671318
0.135012 -0.10842 -0.0442342
0.117746 -0.0947255 -0.0385203
0.271725 -0.21561 -0.0981723
0.243469 -0.19347 -0.0878167
0.152939 -0.120341 -0.0556431
0.138418 -0.108729 -0.0501713